53
 energy: -82.353166455265 gnorm: 0.244017573412 xtb: 6.5.1 (conda-forge)
C           22.69800000000000      -51.88000000000000       -9.53800000000000
C           21.96900000000000      -50.21900000000000      -11.09600000000000
C           23.25500000000000      -50.17799999999999      -11.66400000000000
C           24.25800000000000      -51.01300000000000      -11.14100000000000
C           22.69400000000000      -44.54100000000000      -10.64900000000000
C           23.18200000000000      -43.21400000000000      -10.15500000000000
C           23.09500000000000      -43.13700000000000       -8.75500000000000
C           23.87200000000000      -42.17199999999999       -8.09600000000000
C           23.82800000000000      -42.05500000000000       -6.70600000000000
C           23.00600000000000      -42.89200000000000       -5.95700000000000
C           22.22400000000000      -43.84899999999999       -6.59600000000000
C           22.25900000000000      -43.98500000000000       -7.99400000000000
C           21.45400000000000      -44.97299999999999       -8.57300000000000
N           21.39500000000000      -44.89000000000000      -10.04200000000000
C           21.01100000000000      -46.20300000000000      -10.56700000000000
C           19.52500000000000      -46.48900000000000      -10.31700000000000
O           18.75200000000000      -45.41299999999999      -10.86300000000000
C           19.12200000000000      -47.84500000000000      -10.94800000000000
N           20.17100000000000      -48.82600000000000      -10.63500000000000
C           20.95100000000000      -49.38200000000000      -11.58400000000000
O           20.81300000000000      -49.16400000000000      -12.79500000000000
N           21.70900000000000      -51.04500000000000      -10.05500000000000
N           23.97600000000000      -51.83899999999999      -10.10500000000000
N           25.50300000000000      -51.00599999999999      -11.65500000000000
C           26.60700000000000      -51.78700000000000      -11.05100000000000
C           27.27100000000000      -51.03899999999999       -9.90300000000000
O           28.55700000000000      -51.34600000000000      -10.52500000000000
C           27.90900000000000      -51.57500000000000      -11.81100000000000
H           22.48200000000000      -52.54600000000000       -8.71600000000000
H           23.46900000000000      -49.51500000000000      -12.48900000000000
H           22.57900000000000      -44.49700000000000      -11.74200000000000
H           23.43100000000000      -45.31400000000000      -10.38800000000000
H           24.23100000000000      -43.07999999999999      -10.45800000000000
H           22.56800000000000      -42.41700000000000      -10.59800000000000
H           24.50900000000000      -41.51500000000000       -8.66900000000000
H           24.43400000000000      -41.31200000000000       -6.20900000000000
H           22.97500000000000      -42.79900000000000       -4.88100000000000
H           21.58400000000000      -44.49400000000000       -6.01200000000000
H           20.43300000000000      -44.86800000000000       -8.17600000000000
H           21.85600000000000      -45.95800000000000       -8.29500000000000
H           21.61400000000000      -46.97799999999999      -10.07100000000000
H           21.20300000000000      -46.22599999999999      -11.65000000000000
H           19.36100000000000      -46.55200000000000       -9.23100000000000
H           19.01800000000000      -44.59500000000000      -10.46000000000000
H           19.02800000000000      -47.73500000000000      -12.03800000000000
H           18.16200000000000      -48.18000000000000      -10.52900000000000
H           20.31200000000000      -49.09100000000000       -9.68100000000000
H           25.41800000000000      -51.32600000000000      -12.59900000000000
H           26.37200000000000      -52.83899999999999      -10.83400000000000
H           27.03000000000000      -49.96700000000000       -9.85500000000000
H           27.12100000000000      -51.49399999999999       -8.91300000000000
H           28.27100000000000      -52.46000000000000      -12.35500000000000
H           27.90900000000000      -50.70600000000000      -12.48500000000000
53
 energy: -82.396032919752 gnorm: 0.095167565072 xtb: 6.5.1 (conda-forge)
C           22.71338982252257      -51.83516486259599       -9.57572224071799
C           21.98712739784288      -50.24051309095076      -11.07510074538970
C           23.24709840255152      -50.19561270324215      -11.65668102749519
C           24.23288346604862      -51.03915741247721      -11.12690400603017
C           22.69242194477063      -44.55378102386557      -10.65060801577558
C           23.18070846379269      -43.20826286974973      -10.16851941132149
C           23.10559300835387      -43.11453468901050       -8.71570485341899
C           23.87616144241268      -42.16113237377495       -8.06415166870108
C           23.83255910052001      -42.04517259438012       -6.68838814254971
C           23.01367257902674      -42.88272503468428       -5.94584096704290
C           22.23771236485221      -43.82906425135288       -6.58516390661473
C           22.27702680034218      -43.95196674374656       -7.97118309177186
C           21.45446500911692      -44.97957101538822       -8.59401011551563
N           21.39672177802327      -44.90393156943833      -10.05907219873851
C           21.00732195449579      -46.20778054385730      -10.57492937825142
C           19.52444541393697      -46.48620506263441      -10.31381403755021
O           18.73096639003435      -45.44255211595036      -10.85971115721970
C           19.12459920543493      -47.83741361303471      -10.94060983045076
N           20.14646068255238      -48.83028452954945      -10.64626083487019
C           20.93088211900248      -49.38145566788442      -11.58699643441826
O           20.81098109758829      -49.15294378587923      -12.79303879013176
N           21.72344906970849      -51.05323351074302      -10.03836606833081
N           23.95895434296534      -51.84067632159943      -10.08523988823132
N           25.48400980522953      -51.03150895863956      -11.66632738365606
C           26.58359574260112      -51.77291773150585      -11.05964467436319
C           27.27495236250343      -51.06115687747772       -9.90210799329729
O           28.55909631526023      -51.30758493696789      -10.53228286577754
C           27.90752804506651      -51.59074674387389      -11.79585137664004
H           22.49457729317816      -52.50733342232692       -8.76020562604539
H           23.45802566923704      -49.52990057944764      -12.48158582368529
H           22.57002226553047      -44.52234227880848      -11.73712169475531
H           23.43789701674498      -45.32383633873605      -10.39658261694979
H           24.21951588083238      -43.06800987708376      -10.48679559091634
H           22.57210000175881      -42.41444704838034      -10.61589724850752
H           24.51076450853351      -41.51291357552414       -8.65056898338267
H           24.43915180160548      -41.30372886250330       -6.19559664525652
H           22.97801255527682      -42.79498629832548       -4.87199095016247
H           21.59359709169918      -44.48372081008056       -6.01361003475011
H           20.43289315660659      -44.89070247612077       -8.20170129833096
H           21.84444810084562      -45.96897612871440       -8.29301585455040
H           21.61814808580301      -46.98827381557008      -10.09261128032020
H           21.19065209700562      -46.22927413552001      -11.65242880248033
H           19.35410252867055      -46.54747626740788       -9.22969646310306
H           19.01987698042130      -44.60679976589108      -10.47438155759956
H           19.04109517380736      -47.73747188385686      -12.02636766959974
H           18.16626223846974      -48.17294259018399      -10.53467876770764
H           20.29287341650072      -49.09780082413004       -9.68630196989778
H           25.41885985670146      -51.29202110286993      -12.64127420897851
H           26.35232090690712      -52.81882821005761      -10.83932321642435
H           27.04586606480087      -49.99054004517584       -9.86041620221414
H           27.16065162445381      -51.50273487900410       -8.90964180799653
H           28.30387852853790      -52.46077994850216      -12.32704392543015
H           27.90562302951496      -50.71810820152402      -12.45893065668318
53
 energy: -82.407789433495 gnorm: 0.027653928499 xtb: 6.5.1 (conda-forge)
C           22.72488022426380      -51.80164375688678       -9.59845227006553
C           21.99605420546532      -50.25420693139654      -11.06260121450457
C           23.23723138584459      -50.21589474296282      -11.66006517351629
C           24.21929932346588      -51.06047631610220      -11.12054135397872
C           22.69743807187514      -44.56497250347535      -10.64891604121766
C           23.17660089046827      -43.20235904528160      -10.17911799527332
C           23.11409602107979      -43.09315291872377       -8.69397208868917
C           23.88391233831696      -42.14405391983973       -8.04041576870807
C           23.84056735363426      -42.02982667420211       -6.66773341437969
C           23.01991637472057      -42.86949451727392       -5.93093136308660
C           22.24739399930326      -43.81201949971375       -6.57568428702181
C           22.28920312660093      -43.92753660217468       -7.95873103557889
C           21.46047714976759      -44.98240081717664       -8.60812222473646
N           21.40817766294471      -44.91742496947723      -10.06633732573131
C           20.99965192129763      -46.20953120642960      -10.58368235217140
C           19.52013542190403      -46.49268938286230      -10.30768989674459
O           18.70442445390219      -45.47990484121026      -10.85216347981239
C           19.12106799979984      -47.84036845117620      -10.93365261860766
N           20.11805546769140      -48.84777951677768      -10.65467095633471
C           20.91547631768965      -49.37629326208906      -11.59019504082934
O           20.81368261061433      -49.13935293268990      -12.79158133940510
N           21.73110078500731      -51.05483155452015      -10.02172439783825
N           23.95092868620881      -51.83841392119290      -10.06807892798479
N           25.47302135638378      -51.05113997728441      -11.67587928200234
C           26.56215695366654      -51.77128344514472      -11.06974546592062
C           27.27138498871597      -51.07501335940427       -9.90412701215099
O           28.54745578015426      -51.29402694901231      -10.53489579685639
C           27.90446299673082      -51.60231258215658      -11.78544840501620
H           22.50841029126395      -52.46942416647789       -8.77578829434338
H           23.44150675620786      -49.55744950277116      -12.48904581080909
H           22.57150597263739      -44.54758811452227      -11.73333128264312
H           23.45379568770521      -45.32889683865334      -10.39820565571989
H           24.20625079859365      -43.05298711134713      -10.51117851614394
H           22.56241946386128      -42.41681867688246      -10.62523301635479
H           24.51980668234719      -41.50054439725920       -8.63090794887616
H           24.44771253865202      -41.28988426930928       -6.17265174819569
H           22.98310748679600      -42.78798517403656       -4.85648005815617
H           21.60309167327959      -44.47326490560081       -6.01169271457707
H           20.43874264828940      -44.90221136215082       -8.22172429738554
H           21.85111076555201      -45.96820946045755       -8.28489769295745
H           21.61649283801185      -47.00713606040758      -10.12980596746378
H           21.16149297520018      -46.22703389377829      -11.66269586568273
H           19.35313297460837      -46.55117067536165       -9.22244835621683
H           19.02577634588904      -44.62691667996427      -10.50837017948521
H           19.05184010213132      -47.73238183088962      -12.01748019961165
H           18.15541627876152      -48.16308766009815      -10.54252245154008
H           20.26707219132422      -49.12164608360855       -9.69342847324279
H           25.43345142461879      -51.21793165994004      -12.68504259610134
H           26.32575099381132      -52.81438913177601      -10.84490815175670
H           27.05250128086000      -50.00352102271690       -9.85929548190021
H           27.19436040460334      -51.51816421004226       -8.91336460932002
H           28.33353669687320      -52.46687873331651      -12.29127310807318
H           27.92946086060409      -50.72707378199411      -12.44307099528026
53
 energy: -82.411450808271 gnorm: 0.028197579658 xtb: 6.5.1 (conda-forge)
C           22.73542579744122      -51.77878436390404       -9.58669305866798
C           21.99033859789787      -50.26186722399424      -11.06667318215656
C           23.22457130403740      -50.23775000791253      -11.67775221861426
C           24.21828266217957      -51.07036172455361      -11.13199681629013
C           22.70786191021967      -44.57094057243877      -10.64322565803927
C           23.17289358565996      -43.19585995119269      -10.18207828427749
C           23.12064773517779      -43.07670303079176       -8.68628393298287
C           23.89025850756958      -42.12668657229336       -8.02674280096727
C           23.84675571667692      -42.01440328394558       -6.65203362641140
C           23.02523247445285      -42.85654322528323       -5.91850400691247
C           22.25517388349952      -43.79946163231849       -6.56810221632949
C           22.29761218335658      -43.91521109164609       -7.95272925083032
C           21.47165213933729      -44.98469868505413       -8.60953400302784
N           21.42061914400055      -44.92739513367675      -10.06493061763238
C           20.99323306854382      -46.21012154086168      -10.59282500393499
C           19.51668445043065      -46.50273339802909      -10.30038761264529
O           18.68285599097333      -45.50834998400980      -10.84522638759532
C           19.11307649059387      -47.84687480846235      -10.93151208685380
N           20.09022397609761      -48.87261821634852      -10.66064499906813
C           20.90260538093933      -49.37485182284369      -11.59661908602141
O           20.81915740637008      -49.11938164256367      -12.79507851438136
N           21.72926474219952      -51.04627649838598      -10.01025406524557
N           23.96122151543457      -51.82948120747535      -10.06184778848724
N           25.47116917071074      -51.05284647438284      -11.68555686524732
C           26.55723169569949      -51.77260966262799      -11.07967641995282
C           27.26665256323318      -51.08491216428612       -9.90267399280155
O           28.54330584758651      -51.28245690149293      -10.53061626680302
C           27.91230338939962      -51.61311343955454      -11.77838779911082
H           22.52450327891896      -52.43826653437915       -8.75343483522922
H           23.41802670597518      -49.59434441920556      -12.51894746764954
H           22.58532157029325      -44.56707064400145      -11.72887368338998
H           23.47375249143707      -45.32625088041474      -10.38863066313970
H           24.19541829192545      -43.03222480982132      -10.52845391657118
H           22.54249041051622      -42.42310978345532      -10.62726469942496
H           24.52947285036166      -41.48209667160710       -8.61192591966305
H           24.45401936809142      -41.27617409003844       -6.15203424517700
H           22.98795996554439      -42.77827779040273       -4.84295775799816
H           21.61288146224732      -44.46223157931319       -6.00509028018833
H           20.44821197764027      -44.91056450623540       -8.22904289002103
H           21.86947986049759      -45.96515572592001       -8.27645692506921
H           21.61580758143887      -47.02420323668510      -10.17070282231870
H           21.12979595727374      -46.21293399270410      -11.67720500034258
H           19.35760170690553      -46.56180988051963       -9.21294085280842
H           19.02351446293081      -44.64435570598530      -10.54252086927520
H           19.05582389516832      -47.72422119834610      -12.01503026706266
H           18.13657996004208      -48.15408798761690      -10.55412038841790
H           20.23162418907146      -49.16203770143864       -9.70250994854768
H           25.45339357210591      -51.14285584995893      -12.71105981065520
H           26.31121429966858      -52.81420731237311      -10.85395501809015
H           27.03866248437400      -50.01650844364095       -9.84480989835436
H           27.20817958712441      -51.54318554980122       -8.91802329487098
H           28.35910907401846      -52.48381013384076      -12.25793404674270
H           27.93684366671099      -50.74772131196523      -12.44748793770339
53
 energy: -82.414923970624 gnorm: 0.027990106540 xtb: 6.5.1 (conda-forge)
C           22.75153909963514      -51.74961759885451       -9.56793513005921
C           21.98405081576551      -50.27028252376662      -11.07928906464551
C           23.20656128150304      -50.27102131693856      -11.71319594241916
C           24.22141736400977      -51.07348305484511      -11.14942266961017
C           22.72346378157990      -44.57843721747957      -10.63235463692317
C           23.16557194795458      -43.18817588654811      -10.18270055972519
C           23.12734344387859      -43.06010659265515       -8.68017661557819
C           23.89601789374361      -42.10897019490139       -8.01505971053992
C           23.85193053075935      -41.99839014197796       -6.63826198668231
C           23.03026024997695      -42.84291902671450       -5.90736161562042
C           22.26443812803935      -43.78832219246126       -6.56100135608592
C           22.30728152270351      -43.90572707715099       -7.94720209968383
C           21.48682199329109      -44.99065845187376       -8.60697221608270
N           21.43576932233622      -44.93671535422038      -10.06003966788814
C           20.98762288426462      -46.20787313719868      -10.60312138598453
C           19.51601586446083      -46.51596587166831      -10.29221658860800
O           18.66063062174066      -45.53830140234983      -10.83166034100500
C           19.10682201103348      -47.85684924627419      -10.93185680753460
N           20.05679857392564      -48.90910114371360      -10.66945223362508
C           20.89225127686489      -49.37244493147364      -11.60623617469736
O           20.83627655661287      -49.08274833397950      -12.79919766876195
N           21.73636960466193      -51.02407642482412       -9.99284651189362
N           23.97846509859816      -51.80337095887779      -10.05221290842795
N           25.46961574481337      -51.05369976448950      -11.69566932497922
C           26.55252458206365      -51.77826060871421      -11.08914476707879
C           27.25684528910299      -51.09518507128575       -9.89994889001822
O           28.53495509662348      -51.26388291778170      -10.52876221228610
C           27.91877197588239      -51.62796323515852      -11.77286344592127
H           22.55561855398483      -52.38137957044457       -8.70793023276844
H           23.38087153067889      -49.65435082921940      -12.57842283027504
H           22.61330768800319      -44.59071776643070      -11.72047521638263
H           23.50016251709034      -45.32041935097374      -10.36473211381483
H           24.17805864124787      -43.00091180578063      -10.54779971649404
H           22.50740197168513      -42.43504987742513      -10.62365169787774
H           24.53738004577317      -41.45885761715251       -8.59150022200499
H           24.45776448077455      -41.26081306418426       -6.13305736224591
H           22.99133092345093      -42.76602424428787       -4.83092664611517
H           21.62508875336698      -44.45130075307971       -5.99649759127957
H           20.46250933538904      -44.92420970588730       -8.22939038438555
H           21.89777738741148      -45.96357357317355       -8.26747776344692
H           21.61655870235144      -47.04091296951082      -10.22300308279563
H           21.09417242475331      -46.18288907514656      -11.69314227302554
H           19.36738443090356      -46.57942864099811       -9.20252081414037
H           19.01463092531197      -44.66609610146075      -10.57646943033927
H           19.06240182866462      -47.71586700456412      -12.01491883892579
H           18.11605066783128      -48.14120376717943      -10.57120553510995
H           20.18296915047650      -49.22542866763484       -9.71727915501151
H           25.48020782704407      -51.04582125646181      -12.72609422504594
H           26.28810299091337      -52.81613598543787      -10.86254237721021
H           27.00945924920562      -50.03271746337701       -9.81676074798374
H           27.21357761906746      -51.58047480358452       -8.92728618508995
H           28.38024024892427      -52.51164466130036      -12.21411350464669
H           27.94653954987299      -50.78222176712742      -12.46663952121840
53
 energy: -82.417647306970 gnorm: 0.023572784474 xtb: 6.5.1 (conda-forge)
C           22.77411030995286      -51.69967206054736       -9.53652360867102
C           21.98103493258839      -50.27353137481956      -11.09435856457698
C           23.18922407931893      -50.30436014562698      -11.75377049687007
C           24.22478740584956      -51.07106206002420      -11.16840511707159
C           22.73873187748369      -44.58520090035705      -10.61852023353585
C           23.15605311052362      -43.18242674045988      -10.17978332980375
C           23.13052566657941      -43.05091303848944       -8.67694140109434
C           23.89679829326770      -42.09811570400036       -8.01022454096119
C           23.85255528016055      -41.98806417513099       -6.63229134007693
C           23.03249731295114      -42.83446422997970       -5.90199113226770
C           22.27136125607425      -43.78396234602369       -6.55686602176469
C           22.31466065381801      -43.90348744014943       -7.94345300882493
C           21.50146298435530      -44.99939710543107       -8.60147328958528
N           21.44815017152536      -44.94385350414229      -10.05389921071326
C           20.98535626140437      -46.20454956755209      -10.61310382380250
C           19.51988191364508      -46.52853182191877      -10.28645219978014
O           18.64456505646453      -45.56019593096372      -10.81229832110219
C           19.10486156417571      -47.86625335624277      -10.93597159746184
N           20.03251363988308      -48.93930844279448      -10.68099671425336
C           20.89112030161884      -49.36673307725032      -11.61540226202272
O           20.86171190072334      -49.03996955960949      -12.80047431915817
N           21.75152037997532      -50.98782467071175       -9.97287450915152
N           23.99505133337696      -51.76568657826041      -10.04187994256733
N           25.46675647313283      -51.05735729204183      -11.70457400254016
C           26.54770726156089      -51.78553238653847      -11.09494539553312
C           27.24395822627396      -51.10398168205838       -9.89719960426366
O           28.52394089074637      -51.23793677093517      -10.53194825768571
C           27.91939192216564      -51.64345069450308      -11.76992552606873
H           22.58860746723038      -52.31710215878049       -8.66539140239403
H           23.34017102223374      -49.72355932920436      -12.65072582441471
H           22.64597137561610      -44.61218994002148      -11.70871655286566
H           23.52202066204248      -45.31376070659051      -10.33100972437954
H           24.15783415967493      -42.96893448238576      -10.56095194398048
H           22.46872211088036      -42.44976939296725      -10.61351945422837
H           24.53803751430005      -41.44138511735138       -8.57967635945710
H           24.45613918750303      -41.24954137610955       -6.12468994460738
H           22.99154666366833      -42.75645973775939       -4.82538110397207
H           21.63544239896478      -44.44719096694460       -5.98927395261664
H           20.47791160497624      -44.94147570673427       -8.22154819875328
H           21.92690466063479      -45.96539631424577       -8.26171048328574
H           21.61907911907226      -47.04957943130371      -10.26941909229754
H           21.06966856894158      -46.15004763806810      -11.70507604325651
H           19.38308577295803      -46.60012537613112       -9.19525230055971
H           19.00517552516817      -44.68411098950440      -10.59832680278380
H           19.06890799929744      -47.71305848656998      -12.01815338328097
H           18.10473798163593      -48.13136734740218      -10.58620259724368
H           20.14071065662022      -49.28577152880182       -9.73636459665581
H           25.50528766898207      -50.96145264975765      -12.72371132600369
H           26.26411788361581      -52.81835696376236      -10.86913060327035
H           26.97274250202742      -50.04976708937281       -9.78383359886447
H           27.21171131486905      -51.61816772457334       -8.93781222813293
H           28.38812337311823      -52.54270355288440      -12.17192120797837
H           27.95305234637642      -50.82390333621091      -12.49565350350754
53
 energy: -82.419838988982 gnorm: 0.020333702606 xtb: 6.5.1 (conda-forge)
C           22.78870658797462      -51.66001207819720       -9.52409923032830
C           21.98341159442013      -50.26736610915802      -11.10535091898652
C           23.17617415821600      -50.33231009218463      -11.78815777964451
C           24.22631568252184      -51.06576680168182      -11.18362206483107
C           22.75084121613003      -44.59099906685288      -10.60429003691615
C           23.14383954158712      -43.17927791341663      -10.17528367682812
C           23.12844777316412      -43.04934737213255       -8.67681037125544
C           23.89125105833027      -42.09400884841272       -8.01280841669363
C           23.84795525249682      -41.98312219669305       -6.63471758647171
C           23.03170133180779      -42.83123657062657       -5.90286770264796
C           22.27540825172503      -43.78641827534714       -6.55583608424831
C           22.31853844342171      -43.90802187678086       -7.94162359994488
C           21.51434389099876      -45.01081531209312       -8.59510979995431
N           21.45582769393015      -44.94901003155121      -10.04815951273994
C           20.98558958749812      -46.20133678660378      -10.62244638715240
C           19.52718446721831      -46.53927817268949      -10.28168160327854
O           18.63345608916161      -45.57287460355410      -10.78355045771701
C           19.10616701272412      -47.87309546323644      -10.94139573991488
N           20.02035894052494      -48.95735268117193      -10.69413599072549
C           20.90093066824334      -49.35499367834122      -11.62132819217919
O           20.89577643391714      -48.99167754710810      -12.79627172992110
N           21.77053829062990      -50.94088093791783       -9.95432410911652
N           24.00510090004304      -51.72991744831256      -10.03748072201464
N           25.46307938931122      -51.06407501148148      -11.70848035325604
C           26.54219091414135      -51.79536758855777      -11.09721718477308
C           27.22971140947801      -51.11410248247394       -9.89500494909760
O           28.50997336780436      -51.20954251639785      -10.53997111300579
C           27.91403687708604      -51.65929602899374      -11.76862944992530
H           22.62314413480823      -52.23359885654293       -8.61654923633942
H           23.30507629073212      -49.79025643382813      -12.71455397564069
H           22.67726980719058      -44.63181339067730      -11.69533377085174
H           23.53605484927723      -45.30711545035793      -10.29262252242924
H           24.13459763003658      -42.94030561160622      -10.56855447900882
H           22.43067455232160      -42.46621640390115      -10.60025466344578
H           24.52944357103822      -41.43157495484887       -8.57968462124287
H           24.44871015084938      -41.24171940062629       -6.12831286402250
H           22.98927275788531      -42.75024543631363       -4.82671473059192
H           21.64367874662906      -44.45087340541373       -5.98445707538082
H           20.49285859710901      -44.96360188012287       -8.20833944993175
H           21.95424280288167      -45.97162045612869       -8.26126354525056
H           21.62377798990169      -47.05048529753680      -10.30737871748471
H           21.05521092348495      -46.12015095423402      -11.71271075622369
H           19.40562666881870      -46.62350271255576       -9.18960059096866
H           19.00529388386501      -44.69452740009372      -10.61096166660312
H           19.07356155044320      -47.71353729545011      -12.02233863303711
H           18.10325492418382      -48.12651487583924      -10.59501240060539
H           20.11036639816974      -49.33453177185092       -9.75875026199857
H           25.53186357834840      -50.87692138889562      -12.70956794975047
H           26.24179550529398      -52.82312107373298      -10.87589619305260
H           26.93492804280713      -50.07012083418685       -9.75031001151667
H           27.20832726028413      -51.65406487408163       -8.94853826367962
H           28.38474805160254      -52.57316368251102      -12.13374191479749
H           27.95536450753676      -50.86991266669558      -12.52789694257591
53
 energy: -82.421395578717 gnorm: 0.015144013480 xtb: 6.5.1 (conda-forge)
C           22.80811742463440      -51.59341502257144       -9.49171119834723
C           21.98991677986028      -50.25289165353374      -11.11331909100930
C           23.16962658498133      -50.35096138642849      -11.81243529018576
C           24.22472229218763      -51.06267324634274      -11.19674638092364
C           22.75782654470208      -44.59541093051755      -10.59248146749618