      -----------------------------------------------------------      
     |                   =====================                   |     
     |                           x T B                           |     
     |                   =====================                   |     
     |                         S. Grimme                         |     
     |          Mulliken Center for Theoretical Chemistry        |     
     |                    University of Bonn                     |     
      -----------------------------------------------------------      

   * xtb version 6.4.1 (23d549d) compiled by 'conda@3c73975816cd' on 2022-01-07

   xtb is free software: you can redistribute it and/or modify it under
   the terms of the GNU Lesser General Public License as published by
   the Free Software Foundation, either version 3 of the License, or
   (at your option) any later version.
   
   xtb is distributed in the hope that it will be useful,
   but WITHOUT ANY WARRANTY; without even the implied warranty of
   MERCHANTABILITY or FITNESS FOR A PARTICULAR PURPOSE.  See the
   GNU Lesser General Public License for more details.
   
   Cite this work as:
   * C. Bannwarth, E. Caldeweyher, S. Ehlert, A. Hansen, P. Pracht,
     J. Seibert, S. Spicher, S. Grimme, WIREs Comput. Mol. Sci., 2020, 11,
     e01493. DOI: 10.1002/wcms.1493
   
   for GFN2-xTB:
   * C. Bannwarth, S. Ehlert and S. Grimme., J. Chem. Theory Comput., 2019,
     15, 1652-1671. DOI: 10.1021/acs.jctc.8b01176
   for GFN1-xTB:
   * S. Grimme, C. Bannwarth, P. Shushkov, J. Chem. Theory Comput., 2017,
     13, 1989-2009. DOI: 10.1021/acs.jctc.7b00118
   for GFN0-xTB:
   * P. Pracht, E. Caldeweyher, S. Ehlert, S. Grimme, ChemRxiv, 2019, preprint.
     DOI: 10.26434/chemrxiv.8326202.v1
   for GFN-FF:
   * S. Spicher and S. Grimme, Angew. Chem. Int. Ed., 2020, 59, 15665-15673.
     DOI: 10.1002/anie.202004239
   
   for DFT-D4:
   * E. Caldeweyher, C. Bannwarth and S. Grimme, J. Chem. Phys., 2017,
     147, 034112. DOI: 10.1063/1.4993215
   * E. Caldeweyher, S. Ehlert, A. Hansen, H. Neugebauer, S. Spicher,
     C. Bannwarth and S. Grimme, J. Chem. Phys., 2019, 150, 154122.
     DOI: 10.1063/1.5090222
   * E. Caldeweyher, J.-M. Mewes, S. Ehlert and S. Grimme, Phys. Chem. Chem. Phys.
     2020, 22, 8499-8512. DOI: 10.1039/D0CP00502A
   
   for sTDA-xTB:
   * S. Grimme and C. Bannwarth, J. Chem. Phys., 2016, 145, 054103.
     DOI: 10.1063/1.4959605
   
   in the mass-spec context:
   * V. Asgeirsson, C. Bauer and S. Grimme, Chem. Sci., 2017, 8, 4879.
     DOI: 10.1039/c7sc00601b
   * J. Koopman and S. Grimme, ACS Omega 2019, 4, 12, 15120-15133.
     DOI: 10.1021/acsomega.9b02011
   
   for metadynamics refer to:
   * S. Grimme, J. Chem. Theory Comput., 2019, 155, 2847-2862
     DOI: 10.1021/acs.jctc.9b00143
   
   for SPH calculations refer to:
   * S. Spicher and S. Grimme, J. Chem. Theory Comput., 2021, 17, 1701-1714
     DOI: 10.1021/acs.jctc.0c01306
   
   with help from (in alphabetical order)
   P. Atkinson, C. Bannwarth, F. Bohle, G. Brandenburg, E. Caldeweyher
   M. Checinski, S. Dohm, S. Ehlert, S. Ehrlich, I. Gerasimov, J. Koopman
   C. Lavigne, S. Lehtola, F. März, M. Müller, F. Musil, H. Neugebauer
   J. Pisarek, C. Plett, P. Pracht, J. Seibert, P. Shushkov, S. Spicher
   M. Stahn, M. Steiner, T. Strunk, J. Stückrath, T. Rose, and J. Unsleber
   
 * started run on 2023/01/03 at 22:56:10.289     

           -------------------------------------------------
          |                Calculation Setup                |
           -------------------------------------------------

          program call               : xtb 3XV_model.sdf --opt --gfn 2
          coordinate file            : 3XV_model.sdf
          omp threads                :                     4
          number of atoms            :                    53
          number of electrons        :                   148
          charge                     :                     0
          spin                       :                   0.0
          first test random number   :      0.58677360081346

   ID    Z sym.   atoms
    1    6 C      1-13, 15, 16, 18, 20, 25, 26, 28
    2    7 N      14, 19, 22-24
    3    8 O      17, 21, 27
    4    1 H      29-53

           -------------------------------------------------
          |                 G F N 2 - x T B                 |
           -------------------------------------------------

        Reference                      10.1021/acs.jctc.8b01176
      * Hamiltonian:
        H0-scaling (s, p, d)           1.850000    2.230000    2.230000
        zeta-weighting                 0.500000
      * Dispersion:
        s8                             2.700000
        a1                             0.520000
        a2                             5.000000
        s9                             5.000000
      * Repulsion:
        kExp                           1.500000    1.000000
        rExp                           1.000000
      * Coulomb:
        alpha                          2.000000
        third order                    shell-resolved
        anisotropic                    true
        a3                             3.000000
        a5                             4.000000
        cn-shift                       1.200000
        cn-exp                         4.000000
        max-rad                        5.000000


          ...................................................
          :                      SETUP                      :
          :.................................................:
          :  # basis functions                 137          :
          :  # atomic orbitals                 137          :
          :  # shells                           81          :
          :  # electrons                       148          :
          :  max. iterations                   250          :
          :  Hamiltonian                  GFN2-xTB          :
          :  restarted?                      false          :
          :  GBSA solvation                  false          :
          :  PC potential                    false          :
          :  electronic temp.          300.0000000     K    :
          :  accuracy                    1.0000000          :
          :  -> integral cutoff          0.2500000E+02      :
          :  -> integral neglect         0.1000000E-07      :
          :  -> SCF convergence          0.1000000E-05 Eh   :
          :  -> wf. convergence          0.1000000E-03 e    :
          :  Broyden damping             0.4000000          :
          ...................................................

 iter      E             dE          RMSdq      gap      omega  full diag
   1    -83.2360614 -0.832361E+02  0.401E+00    2.46       0.0  T
   2    -83.3635121 -0.127451E+00  0.237E+00    2.59       1.0  T
   3    -83.3682019 -0.468985E-02  0.109E+00    2.25       1.0  T
   4    -83.3760056 -0.780364E-02  0.245E-01    2.06       1.0  T
   5    -83.3775707 -0.156508E-02  0.991E-02    2.05       1.0  T
   6    -83.3777613 -0.190679E-03  0.525E-02    2.07       1.0  T
   7    -83.3778160 -0.546566E-04  0.228E-02    2.08       1.0  T
   8    -83.3778191 -0.315260E-05  0.887E-03    2.09       1.5  T
   9    -83.3778221 -0.293379E-05  0.328E-03    2.08       4.2  T
  10    -83.3778222 -0.163772E-06  0.145E-03    2.08       9.5  T
  11    -83.3778223 -0.400173E-07  0.560E-04    2.08      24.5  T
  12    -83.3778223 -0.393534E-08  0.226E-04    2.08      60.7  T

   *** convergence criteria satisfied after 12 iterations ***

         #    Occupation            Energy/Eh            Energy/eV
      -------------------------------------------------------------
         1        2.0000           -0.7138875             -19.4259
       ...           ...                  ...                  ...
        68        2.0000           -0.4103262             -11.1655
        69        2.0000           -0.4069436             -11.0735
        70        2.0000           -0.4046303             -11.0106
        71        2.0000           -0.3987277             -10.8499
        72        2.0000           -0.3889415             -10.5836
        73        2.0000           -0.3763879             -10.2420
        74        2.0000           -0.3683898             -10.0244 (HOMO)
        75                         -0.2918339              -7.9412 (LUMO)
        76                         -0.2752830              -7.4908
        77                         -0.2277965              -6.1987
        78                         -0.2227956              -6.0626
        79                         -0.2075771              -5.6485
       ...                                ...                  ...
       137                          0.6628936              18.0383
      -------------------------------------------------------------
                  HL-Gap            0.0765560 Eh            2.0832 eV
             Fermi-level           -0.3301118 Eh           -8.9828 eV

 SCC (total)                   0 d,  0 h,  0 min,  1.700 sec
 SCC setup                      ...        0 min,  0.027 sec (  1.615%)
 Dispersion                     ...        0 min,  0.067 sec (  3.940%)
 classical contributions        ...        0 min,  0.039 sec (  2.275%)
 integral evaluation            ...        0 min,  0.092 sec (  5.395%)
 iterations                     ...        0 min,  1.262 sec ( 74.276%)
 molecular gradient             ...        0 min,  0.204 sec ( 11.986%)
 printout                       ...        0 min,  0.009 sec (  0.512%)

         :::::::::::::::::::::::::::::::::::::::::::::::::::::
         ::                     SUMMARY                     ::
         :::::::::::::::::::::::::::::::::::::::::::::::::::::
         :: total energy             -82.327360694670 Eh    ::
         :: gradient norm              0.251016164199 Eh/a0 ::
         :: HOMO-LUMO gap              2.083193644190 eV    ::
         ::.................................................::
         :: SCC energy               -83.377822290544 Eh    ::
         :: -> isotropic ES            0.116120962172 Eh    ::
         :: -> anisotropic ES          0.009572328309 Eh    ::
         :: -> anisotropic XC          0.044719583910 Eh    ::
         :: -> dispersion             -0.053888037778 Eh    ::
         :: repulsion energy           1.049919959151 Eh    ::
         :: add. restraining           0.000000000000 Eh    ::
         :: total charge               0.000000000000 e     ::
         :::::::::::::::::::::::::::::::::::::::::::::::::::::

      ----------------------------------------------------------- 
     |                   =====================                   |
     |                        A N C O P T                        |
     |                   =====================                   |
     |               Approximate Normal Coordinate               |
     |                Rational Function Optimizer                |
      ----------------------------------------------------------- 

          ...................................................
          :                      SETUP                      :
          :.................................................:
          :   optimization level            normal          :
          :   max. optcycles                   200          :
          :   ANC micro-cycles                  20          :
          :   degrees of freedom               153          :
          :.................................................:
          :   RF solver                   davidson          :
          :   write xtbopt.log                true          :
          :   linear?                        false          :
          :   energy convergence         0.5000000E-05 Eh   :
          :   grad. convergence          0.1000000E-02 Eh/α :
          :   maximium RF displ.         1.0000000          :
          :   Hlow (freq-cutoff)         0.1000000E-01      :
          :   Hmax (freq-cutoff)         5.0000000          :
          :   S6 in model hess.         20.0000000          :
          ...................................................

generating ANC from model Hessian ...
Using Lindh-Hessian (1995)
 Shifting diagonal of input Hessian by    9.9510258447151594E-003
 Lowest  eigenvalues of input Hessian
    0.000000    0.000000    0.000000    0.000000    0.000000    0.000000
    0.010000    0.010229    0.010259    0.010577    0.011059    0.011371
    0.011997    0.012059    0.013131    0.014203    0.015575    0.015818
 Highest eigenvalues
    1.949177    1.998416    2.034752    2.068011    2.147534    2.378849


........................................................................
.............................. CYCLE    1 ..............................
........................................................................
   1    -83.3778223 -0.833778E+02  0.759E-05    2.08       0.0  T
   2    -83.3778223 -0.542570E-10  0.453E-05    2.08     303.1  T
   3    -83.3778223 -0.137845E-10  0.298E-05    2.08     461.2  T
     SCC iter.                  ...        0 min,  0.539 sec
     gradient                   ...        0 min,  0.319 sec
 * total energy  :   -82.3273607 Eh     change       -0.9359837E-09 Eh
   gradient norm :     0.2510163 Eh/α   predicted     0.0000000E+00 (-100.00%)
   displ. norm   :     0.3905671 α      lambda       -0.6271335E-01
   maximum displ.:     0.0876163 α      in ANC's #74, #105, #37, ...

........................................................................
.............................. CYCLE    2 ..............................
........................................................................
   1    -83.4429399 -0.834429E+02  0.280E-01    2.29       0.0  T
   2    -83.4433013 -0.361355E-03  0.182E-01    2.27       1.0  T
   3    -83.4431843  0.117044E-03  0.864E-02    2.25       1.0  T
   4    -83.4434624 -0.278147E-03  0.185E-02    2.25       1.0  T
   5    -83.4434724 -0.100100E-04  0.749E-03    2.25       1.8  T
   6    -83.4434727 -0.321193E-06  0.336E-03    2.25       4.1  T
   7    -83.4434730 -0.294298E-06  0.979E-04    2.25      14.0  T
   8    -83.4434730 -0.130911E-07  0.414E-04    2.25      33.2  T
     SCC iter.                  ...        0 min,  0.986 sec
     gradient                   ...        0 min,  0.287 sec
 * total energy  :   -82.3713260 Eh     change       -0.4396528E-01 Eh
   gradient norm :     0.0979104 Eh/α   predicted    -0.3616163E-01 ( -17.75%)
   displ. norm   :     0.3855229 α      lambda       -0.1960711E-01
   maximum displ.:     0.1130085 α      in ANC's #26, #17, #29, ...

........................................................................
.............................. CYCLE    3 ..............................
........................................................................
   1    -83.4676018 -0.834676E+02  0.204E-01    2.35       0.0  T
   2    -83.4677604 -0.158580E-03  0.128E-01    2.35       1.0  T
   3    -83.4676996  0.607429E-04  0.573E-02    2.34       1.0  T
   4    -83.4678264 -0.126805E-03  0.104E-02    2.34       1.3  T
   5    -83.4678290 -0.257311E-05  0.475E-03    2.34       2.9  T
   6    -83.4678291 -0.116946E-06  0.171E-03    2.34       8.0  T
   7    -83.4678292 -0.951671E-07  0.587E-04    2.34      23.4  T
   8    -83.4678292 -0.405846E-08  0.221E-04    2.34      62.1  T
     SCC iter.                  ...        0 min,  1.136 sec
     gradient                   ...        0 min,  0.227 sec
 * total energy  :   -82.3831357 Eh     change       -0.1180967E-01 Eh
   gradient norm :     0.0264347 Eh/α   predicted    -0.1126063E-01 (  -4.65%)
   displ. norm   :     0.3730592 α      lambda       -0.4594190E-02
   maximum displ.:     0.1408831 α      in ANC's #20, #17, #26, ...

........................................................................
.............................. CYCLE    4 ..............................
........................................................................
   1    -83.4614642 -0.834615E+02  0.124E-01    2.32       0.0  T
   2    -83.4615080 -0.437795E-04  0.724E-02    2.34       1.0  T
   3    -83.4614846  0.234358E-04  0.264E-02    2.34       1.0  T
   4    -83.4615161 -0.314618E-04  0.688E-03    2.34       2.0  T
   5    -83.4615182 -0.210918E-05  0.225E-03    2.34       6.1  T
   6    -83.4615182 -0.837211E-08  0.112E-03    2.34      12.3  T
   7    -83.4615182 -0.310456E-07  0.311E-04    2.34      44.2  T
   8    -83.4615182 -0.796746E-09  0.134E-04    2.34     102.3  T
     SCC iter.                  ...        0 min,  1.343 sec
     gradient                   ...        0 min,  0.269 sec
 * total energy  :   -82.3867170 Eh     change       -0.3581341E-02 Eh
   gradient norm :     0.0265182 Eh/α   predicted    -0.2616819E-02 ( -26.93%)
   displ. norm   :     0.5316650 α      lambda       -0.4485343E-02
   maximum displ.:     0.2245538 α      in ANC's #20, #7, #17, ...

........................................................................
.............................. CYCLE    5 ..............................
........................................................................
   1    -83.4534959 -0.834535E+02  0.178E-01    2.30       0.0  T
   2    -83.4536056 -0.109676E-03  0.102E-01    2.33       1.0  T
   3    -83.4535640  0.415933E-04  0.402E-02    2.33       1.0  T
   4    -83.4536213 -0.572808E-04  0.115E-02    2.33       1.2  T
   5    -83.4536279 -0.660428E-05  0.335E-03    2.33       4.1  T
   6    -83.4536279 -0.377523E-07  0.165E-03    2.33       8.3  T
   7    -83.4536280 -0.606379E-07  0.437E-04    2.33      31.4  T
   8    -83.4536280 -0.870301E-09  0.194E-04    2.33      70.8  T
     SCC iter.                  ...        0 min,  0.844 sec
     gradient                   ...        0 min,  0.354 sec
 * total energy  :   -82.3901503 Eh     change       -0.3433298E-02 Eh
   gradient norm :     0.0269297 Eh/α   predicted    -0.2876622E-02 ( -16.21%)
   displ. norm   :     0.5394222 α      lambda       -0.3435650E-02
   maximum displ.:     0.2392703 α      in ANC's #20, #7, #18, ...

........................................................................
.............................. CYCLE    6 ..............................
........................................................................
   1    -83.4518223 -0.834518E+02  0.184E-01    2.29       0.0  T
   2    -83.4519407 -0.118423E-03  0.105E-01    2.32       1.0  T
   3    -83.4519022  0.384979E-04  0.415E-02    2.31       1.0  T
   4    -83.4519562 -0.540212E-04  0.121E-02    2.32       1.1  T
   5    -83.4519639 -0.770298E-05  0.354E-03    2.32       3.9  T
   6    -83.4519640 -0.643333E-07  0.170E-03    2.32       8.1  T
   7    -83.4519641 -0.558757E-07  0.438E-04    2.32      31.3  T
   8    -83.4519641 -0.890623E-09  0.199E-04    2.32      69.0  T
     SCC iter.                  ...        0 min,  1.275 sec
     gradient                   ...        0 min,  0.229 sec
 * total energy  :   -82.3928398 Eh     change       -0.2689514E-02 Eh
   gradient norm :     0.0229434 Eh/α   predicted    -0.2217677E-02 ( -17.54%)
   displ. norm   :     0.5323833 α      lambda       -0.2977169E-02
   maximum displ.:     0.2487400 α      in ANC's #7, #20, #6, ...

........................................................................
.............................. CYCLE    7 ..............................
........................................................................
   1    -83.4580886 -0.834581E+02  0.186E-01    2.30       0.0  T
   2    -83.4581824 -0.938535E-04  0.107E-01    2.32       1.0  T
   3    -83.4581547  0.276659E-04  0.372E-02    2.31       1.0  T
   4    -83.4581955 -0.407501E-04  0.943E-03    2.32       1.5  T
   5    -83.4582000 -0.451514E-05  0.362E-03    2.32       3.8  T
   6    -83.4582001 -0.965220E-07  0.169E-03    2.32       8.1  T
   7    -83.4582002 -0.605185E-07  0.417E-04    2.32      32.9  T
   8    -83.4582002 -0.109266E-08  0.202E-04    2.32      68.1  T
     SCC iter.                  ...        0 min,  0.911 sec
     gradient                   ...        0 min,  0.174 sec
 * total energy  :   -82.3951145 Eh     change       -0.2274705E-02 Eh
   gradient norm :     0.0188800 Eh/α   predicted    -0.1910619E-02 ( -16.01%)
   displ. norm   :     0.4956119 α      lambda       -0.2379275E-02
   maximum displ.:     0.2412490 α      in ANC's #7, #20, #6, ...

........................................................................
.............................. CYCLE    8 ..............................
........................................................................
   1    -83.4704848 -0.834705E+02  0.157E-01    2.30       0.0  T
   2    -83.4705436 -0.587219E-04  0.910E-02    2.31       1.0  T
   3    -83.4705275  0.160223E-04  0.282E-02    2.31       1.0  T
   4    -83.4705520 -0.244806E-04  0.754E-03    2.31       1.8  T
   5    -83.4705546 -0.258983E-05  0.322E-03    2.31       4.3  T
   6    -83.4705547 -0.797801E-07  0.136E-03    2.31      10.1  T
   7    -83.4705547 -0.376639E-07  0.376E-04    2.31      36.5  T
   8    -83.4705547 -0.702784E-09  0.172E-04    2.31      80.0  T
     SCC iter.                  ...        0 min,  1.015 sec
     gradient                   ...        0 min,  0.259 sec
 * total energy  :   -82.3967424 Eh     change       -0.1627887E-02 Eh
   gradient norm :     0.0149771 Eh/α   predicted    -0.1481853E-02 (  -8.97%)
   displ. norm   :     0.4836149 α      lambda       -0.1574166E-02
   maximum displ.:     0.2263448 α      in ANC's #7, #6, #20, ...

........................................................................
.............................. CYCLE    9 ..............................
........................................................................
   1    -83.4746241 -0.834746E+02  0.154E-01    2.30       0.0  T
   2    -83.4746503 -0.261880E-04  0.896E-02    2.31       1.0  T
   3    -83.4746394  0.109224E-04  0.225E-02    2.31       1.0  T
   4    -83.4746569 -0.175496E-04  0.499E-03    2.31       2.8  T
   5    -83.4746573 -0.332394E-06  0.257E-03    2.31       5.3  T
   6    -83.4746573 -0.500235E-07  0.723E-04    2.31      19.0  T
   7    -83.4746573 -0.133257E-07  0.325E-04    2.31      42.3  T
     SCC iter.                  ...        0 min,  0.683 sec
     gradient                   ...        0 min,  0.484 sec
 * total energy  :   -82.3976690 Eh     change       -0.9265714E-03 Eh
   gradient norm :     0.0197363 Eh/α   predicted    -0.9711764E-03 (   4.81%)
   displ. norm   :     0.3773939 α      lambda       -0.1237244E-02
   maximum displ.:     0.1810404 α      in ANC's #7, #6, #11, ...

........................................................................
.............................. CYCLE   10 ..............................
........................................................................
   1    -83.4842590 -0.834843E+02  0.103E-01    2.29       0.0  T
   2    -83.4842654 -0.642085E-05  0.605E-02    2.29       1.0  T
   3    -83.4842658 -0.374462E-06  0.674E-03    2.29       2.0  T
   4    -83.4842669 -0.108524E-05  0.274E-03    2.29       5.0  T
   5    -83.4842669 -0.281930E-07  0.138E-03    2.29       9.9  T
   6    -83.4842670 -0.475629E-07  0.420E-04    2.29      32.7  T
   7    -83.4842670 -0.376124E-08  0.174E-04    2.29      79.2  T
     SCC iter.                  ...        0 min,  0.925 sec
     gradient                   ...        0 min,  0.288 sec
 * total energy  :   -82.3980934 Eh     change       -0.4244415E-03 Eh
   gradient norm :     0.0227142 Eh/α   predicted    -0.7067354E-03 (  66.51%)
   displ. norm   :     0.3690305 α      lambda       -0.1332489E-02
   maximum displ.:     0.1679606 α      in ANC's #6, #7, #11, ...

........................................................................
.............................. CYCLE   11 ..............................
........................................................................
   1    -83.4786002 -0.834786E+02  0.105E-01    2.27       0.0  T
   2    -83.4786115 -0.112754E-04  0.618E-02    2.28       1.0  T
   3    -83.4785906  0.209196E-04  0.218E-02    2.28       1.0  T
   4    -83.4786171 -0.264952E-04  0.428E-03    2.28       3.2  T
   5    -83.4786173 -0.264251E-06  0.220E-03    2.28       6.2  T
   6    -83.4786173 -0.179692E-07  0.513E-04    2.28      26.8  T
   7    -83.4786173 -0.595658E-08  0.221E-04    2.28      62.2  T
     SCC iter.                  ...        0 min,  0.898 sec
     gradient                   ...        0 min,  0.197 sec
 * total energy  :   -82.3987888 Eh     change       -0.6954105E-03 Eh
   gradient norm :     0.0134909 Eh/α   predicted    -0.7569795E-03 (   8.85%)
   displ. norm   :     0.2395667 α      lambda       -0.6038897E-03
   maximum displ.:     0.1201709 α      in ANC's #6, #12, #11, ...

........................................................................
.............................. CYCLE   12 ..............................
........................................................................
   1    -83.4761139 -0.834761E+02  0.697E-02    2.29       0.0  T
   2    -83.4761190 -0.509791E-05  0.412E-02    2.29       1.0  T
   3    -83.4761181  0.818221E-06  0.840E-03    2.30       1.6  T
   4    -83.4761205 -0.239145E-05  0.310E-03    2.30       4.4  T
   5    -83.4761207 -0.123345E-06  0.172E-03    2.30       8.0  T
   6    -83.4761207 -0.403630E-07  0.597E-04    2.30      23.0  T
   7    -83.4761207 -0.469703E-08  0.244E-04    2.30      56.3  T
     SCC iter.                  ...        0 min,  0.937 sec
     gradient                   ...        0 min,  0.129 sec
 * total energy  :   -82.3990063 Eh     change       -0.2174519E-03 Eh
   gradient norm :     0.0193829 Eh/α   predicted    -0.3192861E-03 (  46.83%)
   displ. norm   :     0.3014476 α      lambda       -0.8898049E-03
   maximum displ.:     0.1517130 α      in ANC's #6, #12, #1, ...

........................................................................
.............................. CYCLE   13 ..............................
........................................................................
   1    -83.4780275 -0.834780E+02  0.925E-02    2.31       0.0  T
   2    -83.4780337 -0.620441E-05  0.546E-02    2.31       1.0  T
   3    -83.4780302  0.348710E-05  0.109E-02    2.31       1.3  T
   4    -83.4780352 -0.499023E-05  0.279E-03    2.31       4.9  T
   5    -83.4780353 -0.151909E-06  0.143E-03    2.31       9.6  T
   6    -83.4780353 -0.156115E-07  0.434E-04    2.31      31.7  T
   7    -83.4780354 -0.695728E-08  0.177E-04    2.31      77.5  T
     SCC iter.                  ...        0 min,  0.882 sec
     gradient                   ...        0 min,  0.233 sec
 * total energy  :   -82.3994722 Eh     change       -0.4659758E-03 Eh
   gradient norm :     0.0143161 Eh/α   predicted    -0.4853392E-03 (   4.16%)
   displ. norm   :     0.2931957 α      lambda       -0.6001018E-03
   maximum displ.:     0.1268279 α      in ANC's #6, #4, #7, ...

........................................................................
.............................. CYCLE   14 ..............................
........................................................................
   1    -83.4758039 -0.834758E+02  0.847E-02    2.30       0.0  T
   2    -83.4758285 -0.245896E-04  0.515E-02    2.31       1.0  T
   3    -83.4758197  0.879597E-05  0.221E-02    2.31       1.0  T
   4    -83.4758334 -0.137292E-04  0.540E-03    2.31       2.5  T
   5    -83.4758348 -0.138214E-05  0.170E-03    2.31       8.1  T
   6    -83.4758348 -0.220731E-07  0.635E-04    2.31      21.6  T
   7    -83.4758348 -0.558995E-08  0.237E-04    2.31      58.1  T
     SCC iter.                  ...        0 min,  0.926 sec
     gradient                   ...        0 min,  0.174 sec
 * total energy  :   -82.3997617 Eh     change       -0.2894698E-03 Eh
   gradient norm :     0.0142797 Eh/α   predicted    -0.3258499E-03 (  12.57%)
   displ. norm   :     0.2944026 α      lambda       -0.4372770E-03
   maximum displ.:     0.1546450 α      in ANC's #6, #5, #1, ...

........................................................................
.............................. CYCLE   15 ..............................
........................................................................
   1    -83.4738714 -0.834739E+02  0.779E-02    2.28       0.0  T
   2    -83.4738844 -0.129707E-04  0.459E-02    2.29       1.0  T
   3    -83.4738828  0.153995E-05  0.124E-02    2.29       1.1  T
   4    -83.4738863 -0.347947E-05  0.245E-03    2.29       5.6  T
   5    -83.4738864 -0.692746E-07  0.140E-03    2.29       9.8  T
   6    -83.4738864 -0.438606E-07  0.544E-04    2.29      25.2  T
   7    -83.4738864 -0.579082E-08  0.207E-04    2.29      66.2  T
     SCC iter.                  ...        0 min,  0.871 sec
     gradient                   ...        0 min,  0.194 sec
 * total energy  :   -82.3999930 Eh     change       -0.2313243E-03 Eh
   gradient norm :     0.0108026 Eh/α   predicted    -0.2375896E-03 (   2.71%)
   displ. norm   :     0.2635542 α      lambda       -0.4073873E-03
   maximum displ.:     0.1295425 α      in ANC's #6, #1, #4, ...

........................................................................
.............................. CYCLE   16 ..............................
........................................................................
   1    -83.4798231 -0.834798E+02  0.759E-02    2.32       0.0  T
   2    -83.4798272 -0.415400E-05  0.449E-02    2.32       1.0  T
   3    -83.4798250  0.222200E-05  0.837E-03    2.32       1.6  T
   4    -83.4798283 -0.336025E-05  0.228E-03    2.32       6.0  T
   5    -83.4798284 -0.654660E-07  0.120E-03    2.32      11.4  T
   6    -83.4798284 -0.231656E-07  0.345E-04    2.32      39.8  T
   7    -83.4798284 -0.370432E-08  0.155E-04    2.32      88.4  T
     SCC iter.                  ...        0 min,  0.649 sec
     gradient                   ...        0 min,  0.172 sec
 * total energy  :   -82.4002117 Eh     change       -0.2186297E-03 Eh
   gradient norm :     0.0079986 Eh/α   predicted    -0.2178428E-03 (  -0.36%)
   displ. norm   :     0.3003899 α      lambda       -0.2647329E-03
   maximum displ.:     0.1430487 α      in ANC's #4, #6, #1, ...

........................................................................
.............................. CYCLE   17 ..............................
........................................................................
   1    -83.4754684 -0.834755E+02  0.850E-02    2.31       0.0  T
   2    -83.4754714 -0.300718E-05  0.502E-02    2.31       1.0  T
   3    -83.4754701  0.137541E-05  0.719E-03    2.31       1.9  T
   4    -83.4754723 -0.225785E-05  0.257E-03    2.31       5.3  T
   5    -83.4754724 -0.105544E-06  0.124E-03    2.31      11.1  T
   6    -83.4754724 -0.197517E-07  0.351E-04    2.31      39.2  T
   7    -83.4754724 -0.110930E-08  0.148E-04    2.31      92.5  T
     SCC iter.                  ...        0 min,  0.552 sec
     gradient                   ...        0 min,  0.176 sec
 * total energy  :   -82.4003306 Eh     change       -0.1189025E-03 Eh
   gradient norm :     0.0086708 Eh/α   predicted    -0.1443114E-03 (  21.37%)
   displ. norm   :     0.1899066 α      lambda       -0.2419672E-03
   maximum displ.:     0.0960694 α      in ANC's #4, #1, #11, ...

........................................................................
.............................. CYCLE   18 ..............................
........................................................................
   1    -83.4797422 -0.834797E+02  0.455E-02    2.31       0.0  T
   2    -83.4797456 -0.339284E-05  0.269E-02    2.31       1.0  T
   3    -83.4797448  0.875279E-06  0.711E-03    2.31       1.9  T
   4    -83.4797462 -0.142041E-05  0.168E-03    2.31       8.2  T
   5    -83.4797463 -0.879638E-07  0.737E-04    2.31      18.6  T
   6    -83.4797463 -0.227071E-08  0.281E-04    2.31      48.9  T
     SCC iter.                  ...        0 min,  0.468 sec
     gradient                   ...        0 min,  0.147 sec
 * total energy  :   -82.4004489 Eh     change       -0.1182897E-03 Eh
   gradient norm :     0.0085862 Eh/α   predicted    -0.1253485E-03 (   5.97%)
   displ. norm   :     0.1967031 α      lambda       -0.1685732E-03
   maximum displ.:     0.0981634 α      in ANC's #1, #4, #6, ...

........................................................................
.............................. CYCLE   19 ..............................
........................................................................
   1    -83.4786930 -0.834787E+02  0.474E-02    2.30       0.0  T
   2    -83.4786963 -0.332589E-05  0.278E-02    2.29       1.0  T
   3    -83.4786953  0.102166E-05  0.748E-03    2.29       1.8  T
   4    -83.4786968 -0.151478E-05  0.168E-03    2.29       8.2  T
   5    -83.4786969 -0.896472E-07  0.672E-04    2.29      20.4  T
   6    -83.4786969 -0.110747E-08  0.285E-04    2.29      48.2  T
     SCC iter.                  ...        0 min,  0.803 sec
     gradient                   ...        0 min,  0.271 sec
 * total energy  :   -82.4005697 Eh     change       -0.1208588E-03 Eh
   gradient norm :     0.0057883 Eh/α   predicted    -0.8755786E-04 ( -27.55%)
   displ. norm   :     0.2798087 α      lambda       -0.2063000E-03
   maximum displ.:     0.1557924 α      in ANC's #4, #1, #5, ...

........................................................................
.............................. CYCLE   20 ..............................
........................................................................
   1    -83.4774170 -0.834774E+02  0.613E-02    2.28       0.0  T
   2    -83.4774201 -0.310264E-05  0.361E-02    2.28       1.0  T
   3    -83.4774177  0.244322E-05  0.829E-03    2.28       1.7  T
   4    -83.4774209 -0.317467E-05  0.153E-03    2.28       9.0  T
   5    -83.4774209 -0.681577E-07  0.682E-04    2.28      20.1  T
   6    -83.4774209 -0.106235E-08  0.231E-04    2.28      59.4  T
     SCC iter.                  ...        0 min,  0.661 sec
     gradient                   ...        0 min,  0.253 sec
 * total energy  :   -82.4007257 Eh     change       -0.1559792E-03 Eh
   gradient norm :     0.0060779 Eh/α   predicted    -0.1112293E-03 ( -28.69%)
   displ. norm   :     0.3882094 α      lambda       -0.2451482E-03
   maximum displ.:     0.2119538 α      in ANC's #4, #1, #5, ...
 * RMSD in coord.:     0.7036556 α      energy gain  -0.7336501E-01 Eh

generating ANC from model Hessian ...
Using Lindh-Hessian (1995)
 Shifting diagonal of input Hessian by    9.9472677174573705E-003
 Lowest  eigenvalues of input Hessian
    0.000000    0.000000    0.000000    0.000000    0.000000    0.000000
    0.010000    0.010274    0.010344    0.010620    0.011176    0.011293
    0.012141    0.012226    0.013486    0.014122    0.015260    0.015543
 Highest eigenvalues
    1.997590    2.019638    2.098056    2.145088    2.276731    2.384986


........................................................................
.............................. CYCLE   21 ..............................
........................................................................
   1    -83.4754371 -0.834754E+02  0.818E-02    2.27       0.0  T
   2    -83.4754400 -0.291707E-05  0.482E-02    2.27       1.0  T
   3    -83.4754384  0.159734E-05  0.673E-03    2.27       2.0  T
   4    -83.4754407 -0.224309E-05  0.173E-03    2.26       8.0  T
   5    -83.4754407 -0.679178E-07  0.862E-04    2.27      15.9  T
   6    -83.4754407 -0.518924E-08  0.280E-04    2.27      49.0  T
     SCC iter.                  ...        0 min,  0.742 sec
     gradient                   ...        0 min,  0.205 sec
 * total energy  :   -82.4009024 Eh     change       -0.1766875E-03 Eh
   gradient norm :     0.0078913 Eh/α   predicted     0.0000000E+00 (-100.00%)
   displ. norm   :     0.0678633 α      lambda       -0.1539240E-03
   maximum displ.:     0.0278588 α      in ANC's #4, #1, #8, ...

........................................................................
.............................. CYCLE   22 ..............................
........................................................................
   1    -83.4779468 -0.834779E+02  0.188E-02    2.27       0.0  T
   2    -83.4779475 -0.720869E-06  0.111E-02    2.27       1.2  T
   3    -83.4779471  0.384002E-06  0.398E-03    2.27       3.4  T
   4    -83.4779477 -0.555849E-06  0.940E-04    2.27      14.6  T
   5    -83.4779477 -0.319875E-07  0.372E-04    2.27      36.9  T
     SCC iter.                  ...        0 min,  0.756 sec
     gradient                   ...        0 min,  0.228 sec
 * total energy  :   -82.4010214 Eh     change       -0.1190471E-03 Eh
   gradient norm :     0.0036191 Eh/α   predicted    -0.7731665E-04 ( -35.05%)
   displ. norm   :     0.1641766 α      lambda       -0.1880005E-03
   maximum displ.:     0.0743477 α      in ANC's #4, #1, #7, ...

........................................................................
.............................. CYCLE   23 ..............................
........................................................................
   1    -83.4805047 -0.834805E+02  0.360E-02    2.29       0.0  T
   2    -83.4805061 -0.141990E-05  0.213E-02    2.29       1.0  T
   3    -83.4805050  0.112278E-05  0.583E-03    2.29       2.4  T
   4    -83.4805065 -0.150308E-05  0.143E-03    2.29       9.6  T
   5    -83.4805066 -0.529320E-07  0.665E-04    2.29      20.7  T
   6    -83.4805066 -0.267075E-08  0.247E-04    2.29      55.6  T
     SCC iter.                  ...        0 min,  0.486 sec
     gradient                   ...        0 min,  0.180 sec
 * total energy  :   -82.4011490 Eh     change       -0.1275268E-03 Eh
   gradient norm :     0.0036542 Eh/α   predicted    -0.9653498E-04 ( -24.30%)
   displ. norm   :     0.1801356 α      lambda       -0.1153538E-03
   maximum displ.:     0.0843198 α      in ANC's #4, #1, #7, ...

........................................................................
.............................. CYCLE   24 ..............................
........................................................................
   1    -83.4807649 -0.834808E+02  0.352E-02    2.30       0.0  T
   2    -83.4807657 -0.742224E-06  0.208E-02    2.30       1.0  T
   3    -83.4807653  0.357998E-06  0.356E-03    2.30       3.9  T
   4    -83.4807659 -0.562924E-06  0.114E-03    2.30      12.0  T
   5    -83.4807659 -0.213814E-07  0.597E-04    2.30      23.0  T
   6    -83.4807659 -0.393858E-08  0.191E-04    2.30      71.8  T
     SCC iter.                  ...        0 min,  0.712 sec
     gradient                   ...        0 min,  0.168 sec
 * total energy  :   -82.4012435 Eh     change       -0.9453455E-04 Eh
   gradient norm :     0.0056532 Eh/α   predicted    -0.5954921E-04 ( -37.01%)
   displ. norm   :     0.3285026 α      lambda       -0.1937514E-03
   maximum displ.:     0.1536403 α      in ANC's #1, #7, #4, ...

........................................................................
.............................. CYCLE   25 ..............................
........................................................................
   1    -83.4795064 -0.834795E+02  0.645E-02    2.31       0.0  T
   2    -83.4795083 -0.188673E-05  0.382E-02    2.30       1.0  T
   3    -83.4795079  0.437261E-06  0.478E-03    2.30       2.9  T
   4    -83.4795088 -0.941434E-06  0.176E-03    2.30       7.8  T
   5    -83.4795089 -0.364512E-07  0.992E-04    2.30      13.8  T
   6    -83.4795089 -0.165228E-07  0.285E-04    2.30      48.3  T
     SCC iter.                  ...        0 min,  0.618 sec
     gradient                   ...        0 min,  0.299 sec
 * total energy  :   -82.4014004 Eh     change       -0.1568749E-03 Eh
   gradient norm :     0.0065890 Eh/α   predicted    -0.1073310E-03 ( -31.58%)
   displ. norm   :     0.4215993 α      lambda       -0.2271118E-03
   maximum displ.:     0.2094369 α      in ANC's #7, #1, #4, ...

........................................................................
.............................. CYCLE   26 ..............................
........................................................................
   1    -83.4771804 -0.834772E+02  0.835E-02    2.31       0.0  T
   2    -83.4771832 -0.279095E-05  0.493E-02    2.30       1.0  T
   3    -83.4771827  0.538981E-06  0.568E-03    2.30       2.4  T
   4    -83.4771840 -0.128044E-05  0.213E-03    2.30       6.4  T
   5    -83.4771840 -0.493061E-07  0.118E-03    2.30      11.7  T
   6    -83.4771840 -0.263079E-07  0.317E-04    2.30      43.4  T
   7    -83.4771840 -0.106175E-08  0.136E-04    2.30     100.8  T
     SCC iter.                  ...        0 min,  0.721 sec
     gradient                   ...        0 min,  0.207 sec
 * total energy  :   -82.4015792 Eh     change       -0.1788774E-03 Eh
   gradient norm :     0.0064297 Eh/α   predicted    -0.1337493E-03 ( -25.23%)
   displ. norm   :     0.3790192 α      lambda       -0.2176839E-03
   maximum displ.:     0.1954901 α      in ANC's #7, #1, #4, ...

........................................................................
.............................. CYCLE   27 ..............................
........................................................................
   1    -83.4760770 -0.834761E+02  0.775E-02    2.29       0.0  T
   2    -83.4760791 -0.212987E-05  0.456E-02    2.29       1.0  T
   3    -83.4760787  0.427124E-06  0.503E-03    2.29       2.7  T
   4    -83.4760797 -0.992723E-06  0.193E-03    2.29       7.1  T
   5    -83.4760797 -0.484947E-07  0.102E-03    2.29      13.5  T
   6    -83.4760797 -0.160852E-07  0.270E-04    2.29      50.8  T
   7    -83.4760797 -0.792994E-09  0.134E-04    2.29     102.5  T
     SCC iter.                  ...        0 min,  0.921 sec
     gradient                   ...        0 min,  0.168 sec
 * total energy  :   -82.4017576 Eh     change       -0.1783878E-03 Eh
   gradient norm :     0.0057193 Eh/α   predicted    -0.1244795E-03 ( -30.22%)
   displ. norm   :     0.4176499 α      lambda       -0.2642310E-03
   maximum displ.:     0.2208361 α      in ANC's #7, #1, #4, ...

........................................................................
.............................. CYCLE   28 ..............................
........................................................................
   1    -83.4764627 -0.834765E+02  0.891E-02    2.28       0.0  T
   2    -83.4764654 -0.273935E-05  0.522E-02    2.28       1.0  T
   3    -83.4764652  0.203894E-06  0.511E-03    2.27       2.7  T
   4    -83.4764661 -0.939686E-06  0.211E-03    2.27       6.5  T
   5    -83.4764662 -0.441110E-07  0.108E-03    2.27      12.8  T
   6    -83.4764662 -0.195299E-07  0.307E-04    2.27      44.8  T
   7    -83.4764662 -0.133406E-08  0.155E-04    2.27      88.5  T
     SCC iter.                  ...        0 min,  0.778 sec
     gradient                   ...        0 min,  0.253 sec
 * total energy  :   -82.4019714 Eh     change       -0.2137370E-03 Eh
   gradient norm :     0.0065804 Eh/α   predicted    -0.1551606E-03 ( -27.41%)
   displ. norm   :     0.4945126 α      lambda       -0.2778476E-03
   maximum displ.:     0.2652200 α      in ANC's #7, #1, #4, ...

........................................................................
.............................. CYCLE   29 ..............................
........................................................................
   1    -83.4766647 -0.834767E+02  0.107E-01    2.26       0.0  T
   2    -83.4766681 -0.337201E-05  0.627E-02    2.26       1.0  T
   3    -83.4766684 -0.304861E-06  0.482E-03    2.26       2.8  T
   4    -83.4766691 -0.658258E-06  0.237E-03    2.26       5.8  T
   5    -83.4766691 -0.487155E-07  0.114E-03    2.26      12.0  T
   6    -83.4766691 -0.275096E-07  0.342E-04    2.26      40.2  T
   7    -83.4766691 -0.157516E-08  0.176E-04    2.26      77.9  T
     SCC iter.                  ...        0 min,  0.927 sec
     gradient                   ...        0 min,  0.238 sec
 * total energy  :   -82.4022019 Eh     change       -0.2305491E-03 Eh
   gradient norm :     0.0074726 Eh/α   predicted    -0.1728983E-03 ( -25.01%)
   displ. norm   :     0.5205595 α      lambda       -0.3109254E-03
   maximum displ.:     0.2861034 α      in ANC's #1, #7, #4, ...

........................................................................
.............................. CYCLE   30 ..............................
........................................................................
   1    -83.4784318 -0.834784E+02  0.115E-01    2.26       0.0  T
   2    -83.4784360 -0.413435E-05  0.672E-02    2.25       1.0  T
   3    -83.4784351  0.895064E-06  0.681E-03    2.25       2.0  T
   4    -83.4784371 -0.205541E-05  0.294E-03    2.25       4.7  T
   5    -83.4784373 -0.164161E-06  0.146E-03    2.25       9.4  T
   6    -83.4784373 -0.261490E-07  0.415E-04    2.25      33.1  T
   7    -83.4784373 -0.277836E-08  0.200E-04    2.25      68.6  T
     SCC iter.                  ...        0 min,  0.546 sec
     gradient                   ...        0 min,  0.251 sec
 * total energy  :   -82.4024532 Eh     change       -0.2512361E-03 Eh
   gradient norm :     0.0072169 Eh/α   predicted    -0.1975992E-03 ( -21.35%)
   displ. norm   :     0.6194342 α      lambda       -0.2978428E-03
   maximum displ.:     0.3436323 α      in ANC's #1, #7, #4, ...

........................................................................
.............................. CYCLE   31 ..............................
........................................................................
   1    -83.4765227 -0.834765E+02  0.132E-01    2.26       0.0  T
   2    -83.4765278 -0.510280E-05  0.776E-02    2.25       1.0  T
   3    -83.4765259  0.186864E-05  0.859E-03    2.25       1.6  T
   4    -83.4765294 -0.347088E-05  0.349E-03    2.25       3.9  T
   5    -83.4765296 -0.219382E-06  0.166E-03    2.25       8.3  T
   6    -83.4765296 -0.269367E-07  0.492E-04    2.25      27.9  T
   7    -83.4765296 -0.258281E-08  0.236E-04    2.25      58.2  T
     SCC iter.                  ...        0 min,  0.580 sec
     gradient                   ...        0 min,  0.182 sec
 * total energy  :   -82.4026823 Eh     change       -0.2291808E-03 Eh
   gradient norm :     0.0068348 Eh/α   predicted    -0.2060631E-03 ( -10.09%)
   displ. norm   :     0.4792150 α      lambda       -0.3997955E-03
   maximum displ.:     0.2922050 α      in ANC's #1, #7, #2, ...

........................................................................
.............................. CYCLE   32 ..............................
........................................................................
   1    -83.4838842 -0.834839E+02  0.107E-01    2.28       0.0  T
   2    -83.4838915 -0.726013E-05  0.631E-02    2.28       1.0  T
   3    -83.4838770  0.144942E-04  0.177E-02    2.28       1.0  T
   4    -83.4838945 -0.175783E-04  0.336E-03    2.28       4.1  T
   5    -83.4838948 -0.225071E-06  0.170E-03    2.28       8.1  T
   6    -83.4838948 -0.109031E-07  0.426E-04    2.28      32.2  T
   7    -83.4838948 -0.271919E-08  0.200E-04    2.28      68.6  T
     SCC iter.                  ...        0 min,  0.670 sec
     gradient                   ...        0 min,  0.257 sec
 * total energy  :   -82.4028543 Eh     change       -0.1719229E-03 Eh
   gradient norm :     0.0069372 Eh/α   predicted    -0.2458046E-03 (  42.97%)
   displ. norm   :     0.5446176 α      lambda       -0.2718637E-03
   maximum displ.:     0.3099348 α      in ANC's #1, #7, #4, ...

........................................................................
.............................. CYCLE   33 ..............................
........................................................................
   1    -83.4770875 -0.834771E+02  0.113E-01    2.28       0.0  T
   2    -83.4770922 -0.470396E-05  0.666E-02    2.28       1.0  T
   3    -83.4770923 -0.563573E-07  0.661E-03    2.28       2.1  T
   4    -83.4770935 -0.127648E-05  0.269E-03    2.28       5.1  T
   5    -83.4770936 -0.198090E-07  0.127E-03    2.28      10.8  T
   6    -83.4770936 -0.333617E-07  0.476E-04    2.28      28.9  T
   7    -83.4770936 -0.288470E-08  0.187E-04    2.28      73.4  T
     SCC iter.                  ...        0 min,  0.777 sec
     gradient                   ...        0 min,  0.148 sec
 * total energy  :   -82.4030132 Eh     change       -0.1589539E-03 Eh
   gradient norm :     0.0066662 Eh/α   predicted    -0.1762515E-03 (  10.88%)
   displ. norm   :     0.1527894 α      lambda       -0.1149907E-03
   maximum displ.:     0.1017660 α      in ANC's #1, #7, #2, ...

........................................................................
.............................. CYCLE   34 ..............................
........................................................................
   1    -83.4778172 -0.834778E+02  0.290E-02    2.28       0.0  T
   2    -83.4778178 -0.544641E-06  0.170E-02    2.28       1.0  T
   3    -83.4778176  0.164099E-06  0.281E-03    2.29       4.9  T
   4    -83.4778179 -0.291540E-06  0.819E-04    2.29      16.8  T
   5    -83.4778179 -0.965662E-08  0.470E-04    2.29      29.2  T
     SCC iter.                  ...        0 min,  0.356 sec
     gradient                   ...        0 min,  0.170 sec
 * total energy  :   -82.4031098 Eh     change       -0.9654107E-04 Eh
   gradient norm :     0.0048719 Eh/α   predicted    -0.5884298E-04 ( -39.05%)
   displ. norm   :     0.3568856 α      lambda       -0.2285236E-03
   maximum displ.:     0.2469809 α      in ANC's #1, #7, #2, ...

........................................................................
.............................. CYCLE   35 ..............................
........................................................................
   1    -83.4800200 -0.834800E+02  0.646E-02    2.29       0.0  T
   2    -83.4800226 -0.261552E-05  0.378E-02    2.30       1.0  T
   3    -83.4800222  0.359395E-06  0.535E-03    2.30       2.6  T
   4    -83.4800232 -0.984572E-06  0.178E-03    2.30       7.7  T
   5    -83.4800233 -0.251737E-07  0.101E-03    2.30      13.6  T
   6    -83.4800233 -0.170877E-07  0.333E-04    2.30      41.2  T
   7    -83.4800233 -0.258841E-08  0.139E-04    2.30      98.6  T
     SCC iter.                  ...        0 min,  0.526 sec
     gradient                   ...        0 min,  0.260 sec
 * total energy  :   -82.4032697 Eh     change       -0.1599382E-03 Eh
   gradient norm :     0.0043884 Eh/α   predicted    -0.1288173E-03 ( -19.46%)
   displ. norm   :     0.5199546 α      lambda       -0.1575468E-03
   maximum displ.:     0.3526191 α      in ANC's #1, #7, #2, ...

........................................................................
.............................. CYCLE   36 ..............................
........................................................................
   1    -83.4784645 -0.834785E+02  0.980E-02    2.30       0.0  T
   2    -83.4784678 -0.326381E-05  0.574E-02    2.30       1.0  T
   3    -83.4784679 -0.120223E-06  0.538E-03    2.30       2.6  T
   4    -83.4784688 -0.875561E-06  0.240E-03    2.30       5.7  T
   5    -83.4784688 -0.392378E-07  0.120E-03    2.30      11.4  T
   6    -83.4784688 -0.180208E-07  0.353E-04    2.30      38.9  T
   7    -83.4784688 -0.136968E-08  0.173E-04    2.30      79.5  T
     SCC iter.                  ...        0 min,  0.777 sec
     gradient                   ...        0 min,  0.209 sec
 * total energy  :   -82.4033897 Eh     change       -0.1200079E-03 Eh
   gradient norm :     0.0061530 Eh/α   predicted    -0.1000782E-03 ( -16.61%)
   displ. norm   :     0.3714098 α      lambda       -0.1613889E-03
   maximum displ.:     0.2741112 α      in ANC's #1, #2, #7, ...

........................................................................
.............................. CYCLE   37 ..............................
........................................................................
   1    -83.4807482 -0.834807E+02  0.625E-02    2.30       0.0  T
   2    -83.4807511 -0.284853E-05  0.366E-02    2.31       1.0  T
   3    -83.4807503  0.756470E-06  0.581E-03    2.30       2.4  T
   4    -83.4807517 -0.139675E-05  0.194E-03    2.31       7.1  T
   5    -83.4807518 -0.727334E-07  0.109E-03    2.30      12.6  T
   6    -83.4807518 -0.109635E-07  0.422E-04    2.30      32.6  T
   7    -83.4807518 -0.437744E-08  0.166E-04    2.30      83.0  T
     SCC iter.                  ...        0 min,  0.515 sec
     gradient                   ...        0 min,  0.187 sec
 * total energy  :   -82.4035159 Eh     change       -0.1261588E-03 Eh
   gradient norm :     0.0050226 Eh/α   predicted    -0.9182639E-04 ( -27.21%)
   displ. norm   :     0.5634785 α      lambda       -0.1854375E-03
   maximum displ.:     0.4102490 α      in ANC's #1, #7, #2, ...

........................................................................
.............................. CYCLE   38 ..............................
........................................................................
   1    -83.4792526 -0.834793E+02  0.975E-02    2.30       0.0  T
   2    -83.4792575 -0.487266E-05  0.570E-02    2.30       1.0  T
   3    -83.4792544  0.309640E-05  0.908E-03    2.30       1.5  T
   4    -83.4792588 -0.442994E-05  0.309E-03    2.30       4.4  T
   5    -83.4792591 -0.248997E-06  0.166E-03    2.30       8.3  T
   6    -83.4792591 -0.178543E-07  0.568E-04    2.30      24.2  T
   7    -83.4792591 -0.644215E-08  0.223E-04    2.30      61.6  T
     SCC iter.                  ...        0 min,  0.909 sec
     gradient                   ...        0 min,  0.226 sec
 * total energy  :   -82.4036610 Eh     change       -0.1451597E-03 Eh
   gradient norm :     0.0048089 Eh/α   predicted    -0.1221585E-03 ( -15.85%)
   displ. norm   :     0.4158430 α      lambda       -0.1841404E-03
   maximum displ.:     0.3261476 α      in ANC's #1, #2, #5, ...

........................................................................
.............................. CYCLE   39 ..............................
........................................................................
   1    -83.4821528 -0.834822E+02  0.642E-02    2.29       0.0  T
   2    -83.4821572 -0.442452E-05  0.375E-02    2.29       1.0  T
   3    -83.4821551  0.208170E-05  0.890E-03    2.28       1.5  T
   4    -83.4821582 -0.308902E-05  0.232E-03    2.29       5.9  T
   5    -83.4821583 -0.149910E-06  0.131E-03    2.29      10.5  T
   6    -83.4821584 -0.158715E-07  0.498E-04    2.29      27.6  T
   7    -83.4821584 -0.482454E-08  0.178E-04    2.29      77.4  T
     SCC iter.                  ...        0 min,  0.650 sec
     gradient                   ...        0 min,  0.263 sec
 * total energy  :   -82.4037828 Eh     change       -0.1218130E-03 Eh
   gradient norm :     0.0048531 Eh/α   predicted    -0.1079970E-03 ( -11.34%)
   displ. norm   :     0.5409843 α      lambda       -0.1399153E-03
   maximum displ.:     0.4164579 α      in ANC's #1, #2, #5, ...

........................................................................
.............................. CYCLE   40 ..............................
........................................................................
   1    -83.4798393 -0.834798E+02  0.854E-02    2.28       0.0  T
   2    -83.4798423 -0.300017E-05  0.499E-02    2.28       1.0  T
   3    -83.4798405  0.184724E-05  0.725E-03    2.27       1.9  T
   4    -83.4798433 -0.284225E-05  0.268E-03    2.28       5.1  T
   5    -83.4798435 -0.146173E-06  0.145E-03    2.28       9.5  T
   6    -83.4798435 -0.138916E-07  0.445E-04    2.28      30.9  T
   7    -83.4798435 -0.327539E-08  0.193E-04    2.28      71.0  T
     SCC iter.                  ...        0 min,  0.706 sec
     gradient                   ...        0 min,  0.293 sec
 * total energy  :   -82.4038774 Eh     change       -0.9459254E-04 Eh
   gradient norm :     0.0060205 Eh/α   predicted    -0.9043356E-04 (  -4.40%)
   displ. norm   :     0.2945819 α      lambda       -0.1166632E-03
   maximum displ.:     0.2436389 α      in ANC's #1, #2, #5, ...

........................................................................
.............................. CYCLE   41 ..............................
........................................................................
   1    -83.4804466 -0.834804E+02  0.409E-02    2.27       0.0  T
   2    -83.4804474 -0.779892E-06  0.240E-02    2.27       1.0  T
   3    -83.4804472  0.244341E-06  0.322E-03    2.27       4.3  T
   4    -83.4804476 -0.459674E-06  0.135E-03    2.27      10.1  T
   5    -83.4804477 -0.394630E-07  0.719E-04    2.27      19.1  T
   6    -83.4804477 -0.380385E-08  0.198E-04    2.27      69.5  T
     SCC iter.                  ...        0 min,  0.630 sec
     gradient                   ...        0 min,  0.155 sec
 * total energy  :   -82.4039701 Eh     change       -0.9264594E-04 Eh
   gradient norm :     0.0048950 Eh/α   predicted    -0.6339492E-04 ( -31.57%)
   displ. norm   :     0.5204510 α      lambda       -0.1837295E-03
   maximum displ.:     0.4358464 α      in ANC's #1, #2, #5, ...

........................................................................
.............................. CYCLE   42 ..............................
........................................................................
   1    -83.4816694 -0.834817E+02  0.692E-02    2.28       0.0  T
   2    -83.4816709 -0.151183E-05  0.408E-02    2.27       1.0  T
   3    -83.4816701  0.815162E-06  0.578E-03    2.27       2.4  T
   4    -83.4816715 -0.145604E-05  0.209E-03    2.27       6.6  T
   5    -83.4816716 -0.392102E-07  0.106E-03    2.27      12.9  T
   6    -83.4816716 -0.125633E-07  0.335E-04    2.27      41.0  T
   7    -83.4816716 -0.202033E-08  0.149E-04    2.27      92.3  T
     SCC iter.                  ...        0 min,  0.808 sec
     gradient                   ...        0 min,  0.246 sec
 * total energy  :   -82.4041048 Eh     change       -0.1347542E-03 Eh
   gradient norm :     0.0047275 Eh/α   predicted    -0.1167489E-03 ( -13.36%)
   displ. norm   :     0.4903566 α      lambda       -0.1572221E-03
   maximum displ.:     0.4183542 α      in ANC's #1, #2, #5, ...
 * RMSD in coord.:     1.1295504 α      energy gain  -0.3379127E-02 Eh

generating ANC from model Hessian ...
Using Lindh-Hessian (1995)
 Shifting diagonal of input Hessian by    9.9427280277152620E-003
 Lowest  eigenvalues of input Hessian
    0.000000    0.000000    0.000000    0.000000    0.000000    0.000000
    0.010000    0.010279    0.010366    0.010603    0.011085    0.011266
    0.012125    0.012296    0.013455    0.014331    0.015295    0.015905
 Highest eigenvalues
    1.998362    2.021682    2.106169    2.150608    2.286029    2.399616


........................................................................
.............................. CYCLE   43 ..............................
........................................................................
   1    -83.4820377 -0.834820E+02  0.619E-02    2.27       0.0  T
   2    -83.4820390 -0.124279E-05  0.364E-02    2.28       1.0  T
   3    -83.4820388  0.170440E-06  0.403E-03    2.28       3.4  T
   4    -83.4820394 -0.599856E-06  0.175E-03    2.28       7.8  T
   5    -83.4820394 -0.333932E-07  0.961E-04    2.28      14.3  T
   6    -83.4820394 -0.108467E-07  0.262E-04    2.28      52.3  T
     SCC iter.                  ...        0 min,  0.504 sec
     gradient                   ...        0 min,  0.199 sec
 * total energy  :   -82.4042260 Eh     change       -0.1211554E-03 Eh
   gradient norm :     0.0047705 Eh/α   predicted     0.0000000E+00 (-100.00%)
   displ. norm   :     0.0449495 α      lambda       -0.5915241E-04
   maximum displ.:     0.0261355 α      in ANC's #1, #3, #18, ...

........................................................................
.............................. CYCLE   44 ..............................
........................................................................
   1    -83.4822706 -0.834823E+02  0.152E-02    2.27       0.0  T
   2    -83.4822708 -0.188883E-06  0.890E-03    2.27       1.5  T
   3    -83.4822707  0.829997E-07  0.172E-03    2.27       8.0  T
   4    -83.4822708 -0.127408E-06  0.459E-04    2.28      30.0  T
   5    -83.4822708 -0.318900E-08  0.241E-04    2.27      57.0  T
     SCC iter.                  ...        0 min,  0.579 sec
     gradient                   ...        0 min,  0.248 sec
 * total energy  :   -82.4042744 Eh     change       -0.4846087E-04 Eh
   gradient norm :     0.0021924 Eh/α   predicted    -0.3142258E-04 ( -35.16%)
   displ. norm   :     0.0955192 α      lambda       -0.6572068E-04
   maximum displ.:     0.0592562 α      in ANC's #1, #3, #17, ...

........................................................................
.............................. CYCLE   45 ..............................
........................................................................
   1    -83.4825767 -0.834826E+02  0.251E-02    2.27       0.0  T
   2    -83.4825771 -0.333903E-06  0.148E-02    2.27       1.0  T
   3    -83.4825770  0.490096E-07  0.191E-03    2.28       7.2  T
   4    -83.4825771 -0.134375E-06  0.711E-04    2.28      19.3  T
   5    -83.4825771 -0.612702E-08  0.348E-04    2.28      39.5  T
     SCC iter.                  ...        0 min,  0.427 sec
     gradient                   ...        0 min,  0.118 sec
 * total energy  :   -82.4043183 Eh     change       -0.4389111E-04 Eh
   gradient norm :     0.0017717 Eh/α   predicted    -0.3316061E-04 ( -24.45%)
   displ. norm   :     0.1293243 α      lambda       -0.3120119E-04
   maximum displ.:     0.0849326 α      in ANC's #1, #3, #7, ...

........................................................................
.............................. CYCLE   46 ..............................
........................................................................
   1    -83.4826293 -0.834826E+02  0.263E-02    2.28       0.0  T
   2    -83.4826296 -0.239571E-06  0.155E-02    2.28       1.0  T
   3    -83.4826296 -0.355021E-07  0.131E-03    2.28      10.5  T
   4    -83.4826297 -0.387092E-07  0.649E-04    2.28      21.2  T
   5    -83.4826297 -0.287253E-08  0.320E-04    2.28      42.9  T
     SCC iter.                  ...        0 min,  0.519 sec
     gradient                   ...        0 min,  0.222 sec
 * total energy  :   -82.4043542 Eh     change       -0.3584477E-04 Eh
   gradient norm :     0.0030009 Eh/α   predicted    -0.1571663E-04 ( -56.15%)
   displ. norm   :     0.1044372 α      lambda       -0.3919145E-04
   maximum displ.:     0.0684051 α      in ANC's #1, #3, #2, ...

........................................................................
.............................. CYCLE   47 ..............................
........................................................................
   1    -83.4825902 -0.834826E+02  0.187E-02    2.28       0.0  T
   2    -83.4825904 -0.113705E-06  0.111E-02    2.28       1.2  T
   3    -83.4825903  0.462997E-07  0.140E-03    2.28       9.8  T
   4    -83.4825904 -0.837680E-07  0.526E-04    2.28      26.1  T
   5    -83.4825904 -0.460948E-08  0.290E-04    2.28      47.4  T
     SCC iter.                  ...        0 min,  0.589 sec
     gradient                   ...        0 min,  0.234 sec
 * total energy  :   -82.4043897 Eh     change       -0.3553589E-04 Eh
   gradient norm :     0.0024433 Eh/α   predicted    -0.1981012E-04 ( -44.25%)
   displ. norm   :     0.2133785 α      lambda       -0.7427228E-04
   maximum displ.:     0.1375394 α      in ANC's #1, #3, #2, ...

........................................................................
.............................. CYCLE   48 ..............................
........................................................................
   1    -83.4823835 -0.834824E+02  0.371E-02    2.28       0.0  T
   2    -83.4823839 -0.411206E-06  0.221E-02    2.28       1.0  T
   3    -83.4823838  0.163143E-06  0.269E-03    2.28       5.1  T
   4    -83.4823841 -0.307111E-06  0.106E-03    2.28      13.0  T
   5    -83.4823841 -0.169390E-07  0.559E-04    2.28      24.6  T
   6    -83.4823841 -0.389856E-08  0.129E-04    2.28     106.5  T
     SCC iter.                  ...        0 min,  0.902 sec
     gradient                   ...        0 min,  0.267 sec
 * total energy  :   -82.4044513 Eh     change       -0.6157904E-04 Eh
   gradient norm :     0.0016375 Eh/α   predicted    -0.3883502E-04 ( -36.93%)
   displ. norm   :     0.3854059 α      lambda       -0.6764576E-04
   maximum displ.:     0.2508331 α      in ANC's #1, #3, #2, ...

........................................................................
.............................. CYCLE   49 ..............................
........................................................................
   1    -83.4818453 -0.834818E+02  0.655E-02    2.28       0.0  T
   2    -83.4818464 -0.103468E-05  0.390E-02    2.28       1.0  T
   3    -83.4818464  0.611010E-09  0.355E-03    2.28       3.9  T
   4    -83.4818468 -0.402794E-06  0.181E-03    2.28       7.6  T
   5    -83.4818468 -0.405004E-07  0.821E-04    2.28      16.7  T
   6    -83.4818468 -0.121202E-07  0.201E-04    2.28      68.4  T
     SCC iter.                  ...        0 min,  0.741 sec
     gradient                   ...        0 min,  0.202 sec
 * total energy  :   -82.4045231 Eh     change       -0.7182867E-04 Eh
   gradient norm :     0.0027416 Eh/α   predicted    -0.3605723E-04 ( -49.80%)
   displ. norm   :     0.1429341 α      lambda       -0.3498515E-04
   maximum displ.:     0.0974115 α      in ANC's #1, #3, #2, ...

........................................................................
.............................. CYCLE   50 ..............................
........................................................................
   1    -83.4822777 -0.834823E+02  0.222E-02    2.28       0.0  T
   2    -83.4822779 -0.146766E-06  0.131E-02    2.28       1.0  T
   3    -83.4822779 -0.122307E-07  0.121E-03    2.28      11.3  T
   4    -83.4822779 -0.433448E-07  0.638E-04    2.28      21.5  T
   5    -83.4822779 -0.404110E-08  0.278E-04    2.28      49.4  T
     SCC iter.                  ...        0 min,  0.558 sec
     gradient                   ...        0 min,  0.164 sec
 * total energy  :   -82.4045551 Eh     change       -0.3194327E-04 Eh
   gradient norm :     0.0023522 Eh/α   predicted    -0.1785738E-04 ( -44.10%)
   displ. norm   :     0.1814099 α      lambda       -0.5502199E-04
   maximum displ.:     0.1254462 α      in ANC's #1, #3, #2, ...

........................................................................
.............................. CYCLE   51 ..............................
........................................................................
   1    -83.4830401 -0.834830E+02  0.285E-02    2.27       0.0  T
   2    -83.4830405 -0.427664E-06  0.168E-02    2.28       1.0  T
   3    -83.4830403  0.208418E-06  0.260E-03    2.27       5.3  T
   4    -83.4830406 -0.335261E-06  0.969E-04    2.28      14.2  T
   5    -83.4830407 -0.183350E-07  0.520E-04    2.27      26.4  T
     SCC iter.                  ...        0 min,  0.579 sec
     gradient                   ...        0 min,  0.211 sec
 * total energy  :   -82.4046029 Eh     change       -0.4786710E-04 Eh
   gradient norm :     0.0013989 Eh/α   predicted    -0.2841915E-04 ( -40.63%)
   displ. norm   :     0.3670899 α      lambda       -0.6307609E-04
   maximum displ.:     0.2556016 α      in ANC's #1, #3, #2, ...

........................................................................
.............................. CYCLE   52 ..............................
........................................................................
   1    -83.4833813 -0.834834E+02  0.575E-02    2.26       0.0  T
   2    -83.4833832 -0.188008E-05  0.337E-02    2.26       1.0  T
   3    -83.4833819  0.129151E-05  0.596E-03    2.26       2.3  T
   4    -83.4833838 -0.189447E-05  0.204E-03    2.26       6.7  T
   5    -83.4833839 -0.831733E-07  0.108E-03    2.26      12.8  T
   6    -83.4833839 -0.887826E-08  0.279E-04    2.26      49.3  T
   7    -83.4833839 -0.137284E-08  0.124E-04    2.26     111.2  T
     SCC iter.                  ...        0 min,  0.615 sec
     gradient                   ...        0 min,  0.130 sec
 * total energy  :   -82.4046735 Eh     change       -0.7056097E-04 Eh
   gradient norm :     0.0019407 Eh/α   predicted    -0.3342778E-04 ( -52.63%)
   displ. norm   :     0.2534721 α      lambda       -0.3306813E-04
   maximum displ.:     0.1796093 α      in ANC's #1, #3, #2, ...

........................................................................
.............................. CYCLE   53 ..............................
........................................................................
   1    -83.4833339 -0.834833E+02  0.389E-02    2.26       0.0  T
   2    -83.4833345 -0.591734E-06  0.228E-02    2.26       1.0  T
   3    -83.4833343  0.236735E-06  0.300E-03    2.26       4.6  T
   4    -83.4833348 -0.459095E-06  0.120E-03    2.26      11.5  T
   5    -83.4833348 -0.184070E-07  0.619E-04    2.26      22.2  T
   6    -83.4833348 -0.458866E-08  0.156E-04    2.26      87.9  T
     SCC iter.                  ...        0 min,  0.649 sec
     gradient                   ...        0 min,  0.218 sec
 * total energy  :   -82.4047165 Eh     change       -0.4301972E-04 Eh
   gradient norm :     0.0019670 Eh/α   predicted    -0.1700924E-04 ( -60.46%)
   displ. norm   :     0.2164149 α      lambda       -0.3436076E-04
   maximum displ.:     0.1539010 α      in ANC's #1, #3, #2, ...

........................................................................
.............................. CYCLE   54 ..............................
........................................................................
   1    -83.4834620 -0.834835E+02  0.316E-02    2.25       0.0  T
   2    -83.4834624 -0.371606E-06  0.183E-02    2.25       1.0  T
   3    -83.4834623  0.677429E-07  0.209E-03    2.25       6.6  T
   4    -83.4834626 -0.217331E-06  0.925E-04    2.25      14.9  T
   5    -83.4834626 -0.941930E-08  0.438E-04    2.25      31.3  T
     SCC iter.                  ...        0 min,  0.620 sec
     gradient                   ...        0 min,  0.226 sec
 * total energy  :   -82.4047621 Eh     change       -0.4558026E-04 Eh
   gradient norm :     0.0014712 Eh/α   predicted    -0.1753960E-04 ( -61.52%)
   displ. norm   :     0.2833085 α      lambda       -0.4695396E-04
   maximum displ.:     0.1984591 α      in ANC's #1, #3, #2, ...

........................................................................
.............................. CYCLE   55 ..............................
........................................................................
   1    -83.4834075 -0.834834E+02  0.434E-02    2.25       0.0  T
   2    -83.4834080 -0.544008E-06  0.253E-02    2.25       1.0  T
   3    -83.4834080 -0.507404E-08  0.231E-03    2.25       5.9  T
   4    -83.4834082 -0.210272E-06  0.114E-03    2.25      12.0  T
   5    -83.4834082 -0.108520E-07  0.522E-04    2.25      26.3  T
   6    -83.4834082 -0.566581E-08  0.164E-04    2.25      83.6  T
     SCC iter.                  ...        0 min,  0.589 sec
     gradient                   ...        0 min,  0.180 sec
 * total energy  :   -82.4048221 Eh     change       -0.6005212E-04 Eh
   gradient norm :     0.0012501 Eh/α   predicted    -0.2431690E-04 ( -59.51%)
   displ. norm   :     0.3489907 α      lambda       -0.5133746E-04
   maximum displ.:     0.2429712 α      in ANC's #1, #3, #2, ...

........................................................................
.............................. CYCLE   56 ..............................
........................................................................
   1    -83.4828520 -0.834829E+02  0.506E-02    2.25       0.0  T
   2    -83.4828528 -0.779915E-06  0.296E-02    2.25       1.0  T
   3    -83.4828526  0.178849E-06  0.342E-03    2.25       4.0  T
   4    -83.4828531 -0.511785E-06  0.150E-03    2.25       9.1  T
   5    -83.4828531 -0.210180E-07  0.662E-04    2.25      20.7  T
   6    -83.4828531 -0.493635E-08  0.177E-04    2.25      77.6  T
     SCC iter.                  ...        0 min,  0.610 sec
     gradient                   ...        0 min,  0.250 sec
 * total energy  :   -82.4048877 Eh     change       -0.6556598E-04 Eh
   gradient norm :     0.0015597 Eh/α   predicted    -0.2706022E-04 ( -58.73%)
   displ. norm   :     0.3692629 α      lambda       -0.5020438E-04
   maximum displ.:     0.2570805 α      in ANC's #1, #3, #2, ...

........................................................................
.............................. CYCLE   57 ..............................
........................................................................
   1    -83.4828600 -0.834829E+02  0.539E-02    2.25       0.0  T
   2    -83.4828608 -0.791468E-06  0.318E-02    2.25       1.0  T
   3    -83.4828608  0.112092E-07  0.304E-03    2.25       4.5  T
   4    -83.4828611 -0.332692E-06  0.157E-03    2.25       8.7  T
   5    -83.4828612 -0.267867E-07  0.731E-04    2.25      18.8  T
   6    -83.4828612 -0.892319E-08  0.204E-04    2.25      67.4  T
     SCC iter.                  ...        0 min,  0.641 sec
     gradient                   ...        0 min,  0.268 sec
 * total energy  :   -82.4049526 Eh     change       -0.6490996E-04 Eh
   gradient norm :     0.0020132 Eh/α   predicted    -0.2662371E-04 ( -58.98%)
   displ. norm   :     0.2562552 α      lambda       -0.5044238E-04
   maximum displ.:     0.1799326 α      in ANC's #1, #3, #2, ...

........................................................................
.............................. CYCLE   58 ..............................
........................................................................
   1    -83.4827850 -0.834828E+02  0.370E-02    2.25       0.0  T
   2    -83.4827854 -0.378282E-06  0.219E-02    2.25       1.0  T
   3    -83.4827854  0.497421E-07  0.230E-03    2.25       6.0  T
   4    -83.4827856 -0.203270E-06  0.110E-03    2.25      12.5  T
   5    -83.4827856 -0.126201E-07  0.538E-04    2.25      25.5  T
   6    -83.4827856 -0.440198E-08  0.138E-04    2.25      99.5  T
     SCC iter.                  ...        0 min,  0.713 sec
     gradient                   ...        0 min,  0.162 sec
 * total energy  :   -82.4049983 Eh     change       -0.4568061E-04 Eh
   gradient norm :     0.0020382 Eh/α   predicted    -0.2687905E-04 ( -41.16%)
   displ. norm   :     0.3143422 α      lambda       -0.6277557E-04
   maximum displ.:     0.2229748 α      in ANC's #1, #3, #2, ...

........................................................................
.............................. CYCLE   59 ..............................
........................................................................
   1    -83.4827881 -0.834828E+02  0.454E-02    2.25       0.0  T
   2    -83.4827886 -0.548115E-06  0.269E-02    2.25       1.0  T
   3    -83.4827886  0.521964E-07  0.271E-03    2.25       5.1  T
   4    -83.4827888 -0.276266E-06  0.133E-03    2.25      10.3  T
   5    -83.4827889 -0.184766E-07  0.656E-04    2.25      21.0  T
   6    -83.4827889 -0.714303E-08  0.172E-04    2.25      79.8  T
     SCC iter.                  ...        0 min,  0.639 sec
     gradient                   ...        0 min,  0.174 sec
 * total energy  :   -82.4050528 Eh     change       -0.5449592E-04 Eh
   gradient norm :     0.0018672 Eh/α   predicted    -0.3449260E-04 ( -36.71%)
   displ. norm   :     0.4872783 α      lambda       -0.5824631E-04
   maximum displ.:     0.3520902 α      in ANC's #1, #3, #2, ...

........................................................................
.............................. CYCLE   60 ..............................
........................................................................
   1    -83.4825224 -0.834825E+02  0.694E-02    2.25       0.0  T
   2    -83.4825237 -0.125001E-05  0.412E-02    2.25       1.0  T
   3    -83.4825236  0.380408E-07  0.401E-03    2.25       3.4  T
   4    -83.4825242 -0.549874E-06  0.201E-03    2.25       6.8  T
   5    -83.4825242 -0.389339E-07  0.995E-04    2.25      13.8  T
   6    -83.4825242 -0.182933E-07  0.259E-04    2.25      53.0  T
     SCC iter.                  ...        0 min,  0.596 sec
     gradient                   ...        0 min,  0.161 sec
 * total energy  :   -82.4051193 Eh     change       -0.6652416E-04 Eh
   gradient norm :     0.0019152 Eh/α   predicted    -0.3219709E-04 ( -51.60%)
   displ. norm   :     0.2908603 α      lambda       -0.3204286E-04
   maximum displ.:     0.2199419 α      in ANC's #1, #3, #2, ...

........................................................................
.............................. CYCLE   61 ..............................
........................................................................
   1    -83.4831180 -0.834831E+02  0.392E-02    2.26       0.0  T
   2    -83.4831184 -0.406151E-06  0.232E-02    2.26       1.0  T
   3    -83.4831185 -0.459952E-07  0.201E-03    2.26       6.8  T
   4    -83.4831186 -0.114854E-06  0.106E-03    2.26      13.0  T
   5    -83.4831186 -0.588007E-08  0.559E-04    2.26      24.6  T
   6    -83.4831186 -0.843575E-08  0.145E-04    2.26      94.4  T
     SCC iter.                  ...        0 min,  0.668 sec
     gradient                   ...        0 min,  0.140 sec
 * total energy  :   -82.4051593 Eh     change       -0.3997223E-04 Eh
   gradient norm :     0.0011694 Eh/α   predicted    -0.1662462E-04 ( -58.41%)
   displ. norm   :     0.2915852 α      lambda       -0.3100347E-04
   maximum displ.:     0.2225805 α      in ANC's #1, #3, #2, ...

........................................................................
.............................. CYCLE   62 ..............................
........................................................................
   1    -83.4833070 -0.834833E+02  0.389E-02    2.26       0.0  T
   2    -83.4833074 -0.375738E-06  0.230E-02    2.26       1.0  T
   3    -83.4833075 -0.748517E-07  0.187E-03    2.26       7.4  T
   4    -83.4833075 -0.854004E-07  0.103E-03    2.26      13.3  T
   5    -83.4833075 -0.479797E-08  0.505E-04    2.26      27.2  T
   6    -83.4833076 -0.759471E-08  0.146E-04    2.26      94.0  T
     SCC iter.                  ...        0 min,  0.608 sec
     gradient                   ...        0 min,  0.241 sec
 * total energy  :   -82.4052013 Eh     change       -0.4196940E-04 Eh
   gradient norm :     0.0014828 Eh/α   predicted    -0.1609132E-04 ( -61.66%)
   displ. norm   :     0.3158066 α      lambda       -0.4105223E-04
   maximum displ.:     0.2444336 α      in ANC's #1, #3, #2, ...

........................................................................
.............................. CYCLE   63 ..............................
........................................................................
   1    -83.4838105 -0.834838E+02  0.433E-02    2.26       0.0  T
   2    -83.4838110 -0.469295E-06  0.256E-02    2.25       1.0  T
   3    -83.4838111 -0.167656E-06  0.184E-03    2.25       7.5  T
   4    -83.4838112 -0.380208E-07  0.107E-03    2.25      12.8  T
   5    -83.4838112 -0.689413E-08  0.395E-04    2.25      34.8  T
   6    -83.4838112 -0.464458E-08  0.154E-04    2.25      89.3  T
     SCC iter.                  ...        0 min,  0.597 sec
     gradient                   ...        0 min,  0.185 sec
 * total energy  :   -82.4052561 Eh     change       -0.5482903E-04 Eh
   gradient norm :     0.0015479 Eh/α   predicted    -0.2143676E-04 ( -60.90%)
   displ. norm   :     0.4944501 α      lambda       -0.5921420E-04
   maximum displ.:     0.3795948 α      in ANC's #1, #3, #2, ...

........................................................................
[...]
          :  -> wf. convergence          0.1000000E-03 e    :
          :  Broyden damping             0.4000000          :
          ...................................................

 iter      E             dE          RMSdq      gap      omega  full diag
   1    -83.4844652 -0.834845E+02  0.899E-05    2.25       0.0  T
   2    -83.4844652 -0.426468E-10  0.562E-05    2.25     244.5  T
   3    -83.4844652 -0.125624E-10  0.374E-05    2.25     367.5  T

   *** convergence criteria satisfied after 3 iterations ***

         #    Occupation            Energy/Eh            Energy/eV
      -------------------------------------------------------------
         1        2.0000           -0.7210719             -19.6214
       ...           ...                  ...                  ...
        68        2.0000           -0.4056899             -11.0394
        69        2.0000           -0.4010774             -10.9139
        70        2.0000           -0.4010424             -10.9129
        71        2.0000           -0.3975497             -10.8179
        72        2.0000           -0.3933210             -10.7028
        73        2.0000           -0.3766284             -10.2486
        74        2.0000           -0.3635771              -9.8934 (HOMO)
        75                         -0.2809925              -7.6462 (LUMO)
        76                         -0.2515621              -6.8454
        77                         -0.2231014              -6.0709
        78                         -0.2200697              -5.9884
        79                         -0.1892989              -5.1511
       ...                                ...                  ...
       137                          0.6956581              18.9298
      -------------------------------------------------------------
                  HL-Gap            0.0825846 Eh            2.2472 eV
             Fermi-level           -0.3222848 Eh           -8.7698 eV

 SCC (total)                   0 d,  0 h,  0 min,  0.767 sec
 SCC setup                      ...        0 min,  0.011 sec (  1.403%)
 Dispersion                     ...        0 min,  0.111 sec ( 14.468%)
 classical contributions        ...        0 min,  0.030 sec (  3.895%)
 integral evaluation            ...        0 min,  0.078 sec ( 10.207%)
 iterations                     ...        0 min,  0.328 sec ( 42.752%)
 molecular gradient             ...        0 min,  0.201 sec ( 26.182%)
 printout                       ...        0 min,  0.008 sec (  1.087%)

         :::::::::::::::::::::::::::::::::::::::::::::::::::::
         ::                     SUMMARY                     ::
         :::::::::::::::::::::::::::::::::::::::::::::::::::::
         :: total energy             -82.405754410877 Eh    ::
         :: gradient norm              0.000268239573 Eh/a0 ::
         :: HOMO-LUMO gap              2.247242176676 eV    ::
         ::.................................................::
         :: SCC energy               -83.484465172810 Eh    ::
         :: -> isotropic ES            0.112742936951 Eh    ::
         :: -> anisotropic ES          0.005110309919 Eh    ::
         :: -> anisotropic XC          0.038601323120 Eh    ::
         :: -> dispersion             -0.053560979146 Eh    ::
         :: repulsion energy           1.078557466099 Eh    ::
         :: add. restraining           0.000000000000 Eh    ::
         :: total charge              -0.000000000000 e     ::
         :::::::::::::::::::::::::::::::::::::::::::::::::::::

           -------------------------------------------------
          |                Property Printout                |
           -------------------------------------------------

    * Orbital Energies and Occupations

         #    Occupation            Energy/Eh            Energy/eV
      -------------------------------------------------------------
         1        2.0000           -0.7210719             -19.6214
       ...           ...                  ...                  ...
        62        2.0000           -0.4471745             -12.1682
        63        2.0000           -0.4228792             -11.5071
        64        2.0000           -0.4197287             -11.4214
        65        2.0000           -0.4156273             -11.3098
        66        2.0000           -0.4112460             -11.1906
        67        2.0000           -0.4107080             -11.1759
        68        2.0000           -0.4056899             -11.0394
        69        2.0000           -0.4010774             -10.9139
        70        2.0000           -0.4010424             -10.9129
        71        2.0000           -0.3975497             -10.8179
        72        2.0000           -0.3933210             -10.7028
        73        2.0000           -0.3766284             -10.2486
        74        2.0000           -0.3635771              -9.8934 (HOMO)
        75                         -0.2809925              -7.6462 (LUMO)
        76                         -0.2515621              -6.8454
        77                         -0.2231014              -6.0709
        78                         -0.2200697              -5.9884
        79                         -0.1892989              -5.1511
        80                         -0.1114546              -3.0328
        81                         -0.0947042              -2.5770
        82                         -0.0436440              -1.1876
        83                         -0.0199355              -0.5425
        84                         -0.0069468              -0.1890
        85                          0.0074845               0.2037
       ...                                ...                  ...
       137                          0.6956581              18.9298
      -------------------------------------------------------------
                  HL-Gap            0.0825846 Eh            2.2472 eV
             Fermi-level           -0.3222848 Eh           -8.7698 eV

     #   Z          covCN         q      C6AA      α(0)
     1   6 C        2.911     0.156    24.622     8.137
     2   6 C        2.989     0.077    26.279     8.409
     3   6 C        2.913    -0.072    29.806     8.952
     4   6 C        2.910     0.171    24.323     8.087
     5   6 C        3.765     0.016    20.347     6.429
     6   6 C        3.812    -0.066    21.754     6.639
     7   6 C        2.976     0.009    27.810     8.650
     8   6 C        2.924    -0.040    29.005     8.832
     9   6 C        2.919    -0.034    28.841     8.807
    10   6 C        2.919    -0.034    28.841     8.807
    11   6 C        2.925    -0.041    29.012     8.833
    12   6 C        2.974     0.001    27.995     8.679
    13   6 C        3.772     0.012    20.397     6.436
    14   7 N        2.732    -0.186    25.032     7.431
    15   6 C        3.757    -0.003    20.677     6.483
    16   6 C        3.726     0.108    18.909     6.209
    17   8 O        1.656    -0.449    21.813     6.305
    18   6 C        3.742    -0.007    20.771     6.502
    19   7 N        2.692    -0.169    24.652     7.374
    20   6 C        2.759     0.262    22.586     7.783
    21   8 O        0.858    -0.439    22.470     6.355
    22   7 N        1.837    -0.283    28.180     7.867
    23   7 N        1.842    -0.284    28.220     7.873
    24   7 N        2.696    -0.160    24.452     7.344
    25   6 C        3.831     0.026    20.109     6.380
    26   6 C        4.021     0.069    19.353     6.249
    27   8 O        1.739    -0.318    19.296     5.931
    28   6 C        4.022     0.069    19.351     6.249
    29   1 H        0.925     0.044     2.400     2.423
    30   1 H        0.926     0.058     2.221     2.331
    31   1 H        0.924     0.035     2.519     2.482
    32   1 H        0.923     0.012     2.862     2.646
    33   1 H        0.924     0.043     2.412     2.429
    34   1 H        0.924     0.052     2.301     2.372
    35   1 H        0.926     0.030     2.582     2.513
    36   1 H        0.926     0.031     2.566     2.505
    37   1 H        0.926     0.031     2.567     2.506
    38   1 H        0.926     0.027     2.624     2.533
    39   1 H        0.924     0.041     2.434     2.440
    40   1 H        0.922     0.015     2.811     2.622
    41   1 H        0.923     0.008     2.917     2.671
    42   1 H        0.924     0.055     2.256     2.349
    43   1 H        0.922     0.014     2.820     2.626
    44   1 H        0.804     0.313     0.684     1.299
    45   1 H        0.924     0.085     1.929     2.172
    46   1 H        0.924     0.066     2.133     2.284
    47   1 H        0.860     0.196     1.125     1.661
    48   1 H        0.860     0.177     1.231     1.738
    49   1 H        0.925     0.085     1.929     2.172
    50   1 H        0.924     0.043     2.408     2.426
    51   1 H        0.924     0.049     2.326     2.385
    52   1 H        0.924     0.050     2.318     2.381
    53   1 H        0.924     0.044     2.391     2.418

 Mol. C6AA /au·bohr⁶  :      30292.018337
 Mol. C8AA /au·bohr⁸  :     698414.277845
 Mol. α(0) /au        :        266.414971


Wiberg/Mayer (AO) data.
largest (>0.10) Wiberg bond orders for each atom

 ---------------------------------------------------------------------------
     #   Z sym  total        # sym  WBO       # sym  WBO       # sym  WBO
 ---------------------------------------------------------------------------
     1   6 C    3.968 --    22 N    1.448    23 N    1.430    29 H    0.956
     2   6 C    3.974 --     3 C    1.483    22 N    1.327    20 C    0.964
     3   6 C    3.986 --     2 C    1.483     4 C    1.272    30 H    0.963
     4   6 C    3.967 --    23 N    1.323     3 C    1.272    24 N    1.233
     5   6 C    3.986 --     6 C    1.002    14 N    0.999    31 H    0.972
                            32 H    0.967
     6   6 C    3.997 --     7 C    1.012     5 C    1.002    33 H    0.969
                            34 H    0.959
     7   6 C    3.989 --     8 C    1.407    12 C    1.395     6 C    1.012
                            10 C    0.106
     8   6 C    3.992 --     9 C    1.452     7 C    1.407    35 H    0.969
                            11 C    0.111
     9   6 C    3.992 --     8 C    1.452    10 C    1.426    36 H    0.971
                            12 C    0.107
    10   6 C    3.992 --    11 C    1.453     9 C    1.426    37 H    0.971
                             7 C    0.106
    11   6 C    3.992 --    10 C    1.453    12 C    1.407    38 H    0.970
                             8 C    0.111
    12   6 C    3.989 --    11 C    1.407     7 C    1.395    13 C    1.006
                             9 C    0.107
    13   6 C    3.987 --    12 C    1.006    14 N    1.003    39 H    0.961
                            40 H    0.946
    14   7 N    3.145 --    15 C    1.005    13 C    1.003     5 C    0.999
    15   6 C    3.984 --    14 N    1.005    16 C    0.981    42 H    0.968
                            41 H    0.964
    16   6 C    3.964 --    17 O    1.004    15 C    0.981    18 C    0.971
                            43 H    0.955
    17   8 O    1.952 --    16 C    1.004    44 H    0.867
    18   6 C    3.963 --    19 N    1.002    16 C    0.971    46 H    0.967
                            45 H    0.964
    19   7 N    3.471 --    20 C    1.267    18 C    1.002    47 H    0.921
                            21 O    0.210
    20   6 C    3.957 --    21 O    1.657    19 N    1.267     2 C    0.964
    21   8 O    1.996 --    20 C    1.657    19 N    0.210
    22   7 N    3.052 --     1 C    1.448     2 C    1.327
    23   7 N    3.047 --     1 C    1.430     4 C    1.323
    24   7 N    3.442 --     4 C    1.233    25 C    1.012    48 H    0.936
    25   6 C    3.964 --    24 N    1.012    28 C    0.979    26 C    0.976
                            49 H    0.958
    26   6 C    3.948 --    27 O    0.981    25 C    0.976    51 H    0.973
                            50 H    0.971
    27   8 O    2.031 --    26 C    0.981    28 C    0.981
    28   6 C    3.948 --    27 O    0.981    25 C    0.979    52 H    0.973
                            53 H    0.971
    29   1 H    0.998 --     1 C    0.956
    30   1 H    0.997 --     3 C    0.963
    31   1 H    0.998 --     5 C    0.972
    32   1 H    1.000 --     5 C    0.967
    33   1 H    0.998 --     6 C    0.969
    34   1 H    0.997 --     6 C    0.959
    35   1 H    0.999 --     8 C    0.969
    36   1 H    0.998 --     9 C    0.971
    37   1 H    0.998 --    10 C    0.971
    38   1 H    0.999 --    11 C    0.970
    39   1 H    0.998 --    13 C    0.961
    40   1 H    1.000 --    13 C    0.946
    41   1 H    1.000 --    15 C    0.964
    42   1 H    0.997 --    15 C    0.968
    43   1 H    1.000 --    16 C    0.955
    44   1 H    0.902 --    17 O    0.867
    45   1 H    0.993 --    18 C    0.964
    46   1 H    0.994 --    18 C    0.967
    47   1 H    0.961 --    19 N    0.921
    48   1 H    0.969 --    24 N    0.936
    49   1 H    0.993 --    25 C    0.958
    50   1 H    0.998 --    26 C    0.971
    51   1 H    0.997 --    26 C    0.973
    52   1 H    0.997 --    28 C    0.973
    53   1 H    0.998 --    28 C    0.971
 ---------------------------------------------------------------------------

Topologies differ in bond orders
Writing corrected topology to xtbtopo.sdf

molecular dipole:
                 x           y           z       tot (Debye)
 q only:        0.343      -0.021       0.576
   full:        0.859      -0.092       0.527       2.574
molecular quadrupole (traceless):
                xx          xy          yy          xz          yz          zz
 q only:       29.934     -44.947      13.135      24.548     -76.924     -43.069
  q+dip:       58.800    -110.801       1.748       4.054     -69.169     -60.548
   full:       60.805    -110.284       2.059       5.031     -66.364     -62.864

           -------------------------------------------------
          |                Geometry Summary                 |
           -------------------------------------------------

      molecular mass/u    :      383.4449676
   center of mass at/Å    :       22.9318987     -47.6239041     -10.0392866
  moments of inertia/u·Å² :        0.1858044E+04   0.8243051E+04   0.9225122E+04
rotational constants/cm⁻¹ :        0.9072786E-02   0.2045072E-02   0.1827361E-02

 * 53 selected distances

     #   Z          #   Z                                           value/Å
     2   6 C        3   6 C                                       1.3766046
     3   6 C        4   6 C                                       1.4081409
     5   6 C        6   6 C                                       1.5251080
     7   6 C        8   6 C                                       1.3892422
     8   6 C        9   6 C                                       1.3817532
     9   6 C       10   6 C                                       1.3853563
    10   6 C       11   6 C                                       1.3814343
     7   6 C       12   6 C                                       1.3903050
    11   6 C       12   6 C                                       1.3899354
     5   6 C       14   7 N                                       1.4518784
    13   6 C       14   7 N                                       1.4517049
    14   7 N       15   6 C                                       1.4517700
    15   6 C       16   6 C                                       1.5374850
    16   6 C       17   8 O                                       1.4041525
    16   6 C       18   6 C                                       1.5382214
    18   6 C       19   7 N                                       1.4376267
    19   7 N       20   6 C                                       1.3448758
    20   6 C       21   8 O                                       1.2168995
     1   6 C       22   7 N                                       1.3150756
     2   6 C       22   7 N                                       1.3429438
     1   6 C       23   7 N                                       1.3181932
     4   6 C       23   7 N                                       1.3376102
     4   6 C       24   7 N                                       1.3491276
    24   7 N       25   6 C                                       1.4281841
    25   6 C       26   6 C                                       1.5405261 (max)
    26   6 C       27   8 O                                       1.4282411
    25   6 C       28   6 C                                       1.5387135
    27   8 O       28   6 C                                       1.4285646
     1   6 C       29   1 H                                       1.0830047
     3   6 C       30   1 H                                       1.0775368
     5   6 C       31   1 H                                       1.0921224
     5   6 C       32   1 H                                       1.1036723
     6   6 C       33   1 H                                       1.0916862
     6   6 C       34   1 H                                       1.0941721
     8   6 C       35   1 H                                       1.0808495
     9   6 C       36   1 H                                       1.0798654
    10   6 C       37   1 H                                       1.0798796
    11   6 C       38   1 H                                       1.0811024
    13   6 C       39   1 H                                       1.0939745
    13   6 C       40   1 H                                       1.1097091
    15   6 C       41   1 H                                       1.1018982
    15   6 C       42   1 H                                       1.0921016
    16   6 C       43   1 H                                       1.1051543
    17   8 O       44   1 H                                       0.9707457 (min)
    18   6 C       45   1 H                                       1.0923177
    18   6 C       46   1 H                                       1.0921246
    19   7 N       47   1 H                                       1.0119398
    24   7 N       48   1 H                                       1.0089421
    25   6 C       49   1 H                                       1.0894439
    26   6 C       50   1 H                                       1.0946500
    26   6 C       51   1 H                                       1.0920092
    28   6 C       52   1 H                                       1.0919188
    28   6 C       53   1 H                                       1.0945022

 * 6 distinct bonds (by element types)

   Z      Z             #   av. dist./Å        max./Å        min./Å
   1 H    6 C          22     1.0915316     1.1097091     1.0775368
   6 C    6 C          13     1.4448328     1.5405261     1.3766046
   1 H    7 N           2     1.0104410     1.0119398     1.0089421
   6 C    7 N          11     1.3844537     1.4518784     1.3150756
   1 H    8 O           1     0.9707457     0.9707457     0.9707457
   6 C    8 O           4     1.3694644     1.4285646     1.2168995


optimized geometry written to: xtbopt.sdf


           -------------------------------------------------
          | TOTAL ENERGY              -82.405754410877 Eh   |
          | GRADIENT NORM               0.000268239573 Eh/α |
          | HOMO-LUMO GAP               2.247242176676 eV   |
           -------------------------------------------------

------------------------------------------------------------------------
 * finished run on 2023/01/03 at 22:57:43.233     
------------------------------------------------------------------------
 total:
 * wall-time:     0 d,  0 h,  1 min, 32.944 sec
 *  cpu-time:     0 d,  0 h,  2 min, 52.159 sec
 * ratio c/w:     1.852 speedup
 SCF:
 * wall-time:     0 d,  0 h,  0 min,  1.700 sec
 *  cpu-time:     0 d,  0 h,  0 min,  3.099 sec
 * ratio c/w:     1.823 speedup
 ANC optimizer:
 * wall-time:     0 d,  0 h,  1 min, 31.004 sec
 *  cpu-time:     0 d,  0 h,  2 min, 48.746 sec
 * ratio c/w:     1.854 speedup

