      -----------------------------------------------------------      
     |                   =====================                   |     
     |                           x T B                           |     
     |                   =====================                   |     
     |                         S. Grimme                         |     
     |          Mulliken Center for Theoretical Chemistry        |     
     |                    University of Bonn                     |     
      -----------------------------------------------------------      

   * xtb version 6.5.1 (conda-forge) compiled by 'runner@Mac-1657629245115.local' on 2022-07-12

   xtb is free software: you can redistribute it and/or modify it under
   the terms of the GNU Lesser General Public License as published by
   the Free Software Foundation, either version 3 of the License, or
   (at your option) any later version.
   
   xtb is distributed in the hope that it will be useful,
   but WITHOUT ANY WARRANTY; without even the implied warranty of
   MERCHANTABILITY or FITNESS FOR A PARTICULAR PURPOSE.  See the
   GNU Lesser General Public License for more details.
   
   Cite this work as:
   * C. Bannwarth, E. Caldeweyher, S. Ehlert, A. Hansen, P. Pracht,
     J. Seibert, S. Spicher, S. Grimme, WIREs Comput. Mol. Sci., 2020, 11,
     e01493. DOI: 10.1002/wcms.1493
   
   for GFN2-xTB:
   * C. Bannwarth, S. Ehlert and S. Grimme., J. Chem. Theory Comput., 2019,
     15, 1652-1671. DOI: 10.1021/acs.jctc.8b01176
   for GFN1-xTB:
   * S. Grimme, C. Bannwarth, P. Shushkov, J. Chem. Theory Comput., 2017,
     13, 1989-2009. DOI: 10.1021/acs.jctc.7b00118
   for GFN0-xTB:
   * P. Pracht, E. Caldeweyher, S. Ehlert, S. Grimme, ChemRxiv, 2019, preprint.
     DOI: 10.26434/chemrxiv.8326202.v1
   for GFN-FF:
   * S. Spicher and S. Grimme, Angew. Chem. Int. Ed., 2020, 59, 15665-15673.
     DOI: 10.1002/anie.202004239
   
   for ALPB and GBSA implicit solvation:
   * S. Ehlert, M. Stahn, S. Spicher, S. Grimme, J. Chem. Theory Comput.,
     2021, 17, 4250-4261. DOI: 10.1021/acs.jctc.1c00471
   
   for DFT-D4:
   * E. Caldeweyher, C. Bannwarth and S. Grimme, J. Chem. Phys., 2017,
     147, 034112. DOI: 10.1063/1.4993215
   * E. Caldeweyher, S. Ehlert, A. Hansen, H. Neugebauer, S. Spicher,
     C. Bannwarth and S. Grimme, J. Chem. Phys., 2019, 150, 154122.
     DOI: 10.1063/1.5090222
   * E. Caldeweyher, J.-M. Mewes, S. Ehlert and S. Grimme, Phys. Chem. Chem. Phys.
     2020, 22, 8499-8512. DOI: 10.1039/D0CP00502A
   
   for sTDA-xTB:
   * S. Grimme and C. Bannwarth, J. Chem. Phys., 2016, 145, 054103.
     DOI: 10.1063/1.4959605
   
   in the mass-spec context:
   * V. Asgeirsson, C. Bauer and S. Grimme, Chem. Sci., 2017, 8, 4879.
     DOI: 10.1039/c7sc00601b
   * J. Koopman and S. Grimme, ACS Omega 2019, 4, 12, 15120-15133.
     DOI: 10.1021/acsomega.9b02011
   
   for metadynamics refer to:
   * S. Grimme, J. Chem. Theory Comput., 2019, 155, 2847-2862
     DOI: 10.1021/acs.jctc.9b00143
   
   for SPH calculations refer to:
   * S. Spicher and S. Grimme, J. Chem. Theory Comput., 2021, 17, 1701-1714
     DOI: 10.1021/acs.jctc.0c01306
   
   with help from (in alphabetical order)
   P. Atkinson, C. Bannwarth, F. Bohle, G. Brandenburg, E. Caldeweyher
   M. Checinski, S. Dohm, S. Ehlert, S. Ehrlich, I. Gerasimov, C. Hölzer
   A. Katbashev, J. Koopman, C. Lavigne, S. Lehtola, F. März, M. Müller,
   F. Musil, H. Neugebauer, J. Pisarek, C. Plett, P. Pracht, F. Pultar,
   J. Seibert, P. Shushkov, S. Spicher, M. Stahn, M. Steiner, T. Strunk,
   J. Stückrath, T. Rose, and J. Unsleber
   
 * started run on 2023/01/03 at 22:54:51.350     

           -------------------------------------------------
          |                Calculation Setup                |
           -------------------------------------------------

          program call               : xtb 3XV_model.sdf --opt --gfn 2 --opt normal
          coordinate file            : 3XV_model.sdf
          omp threads                :                     8

   ID    Z sym.   atoms
    1    6 C      1-13, 15, 16, 18, 20, 25, 26, 28
    2    7 N      14, 19, 22-24
    3    8 O      17, 21, 27
    4    1 H      29-53

           -------------------------------------------------
          |                 G F N 2 - x T B                 |
           -------------------------------------------------

        Reference                      10.1021/acs.jctc.8b01176
      * Hamiltonian:
        H0-scaling (s, p, d)           1.850000    2.230000    2.230000
        zeta-weighting                 0.500000
      * Dispersion:
        s8                             2.700000
        a1                             0.520000
        a2                             5.000000
        s9                             5.000000
      * Repulsion:
        kExp                           1.500000    1.000000
        rExp                           1.000000
      * Coulomb:
        alpha                          2.000000
        third order                    shell-resolved
        anisotropic                    true
        a3                             3.000000
        a5                             4.000000
        cn-shift                       1.200000
        cn-exp                         4.000000
        max-rad                        5.000000


          ...................................................
          :                      SETUP                      :
          :.................................................:
          :  # basis functions                 137          :
          :  # atomic orbitals                 137          :
          :  # shells                           81          :
          :  # electrons                       148          :
          :  max. iterations                   250          :
          :  Hamiltonian                  GFN2-xTB          :
          :  restarted?                      false          :
          :  GBSA solvation                  false          :
          :  PC potential                    false          :
          :  electronic temp.          300.0000000     K    :
          :  accuracy                    1.0000000          :
          :  -> integral cutoff          0.2500000E+02      :
          :  -> integral neglect         0.1000000E-07      :
          :  -> SCF convergence          0.1000000E-05 Eh   :
          :  -> wf. convergence          0.1000000E-03 e    :
          :  Broyden damping             0.4000000          :
          ...................................................

 iter      E             dE          RMSdq      gap      omega  full diag
   1    -83.2360604 -0.832361E+02  0.401E+00    2.46       0.0  T
   2    -83.3635111 -0.127451E+00  0.237E+00    2.59       1.0  T
   3    -83.3682010 -0.468985E-02  0.109E+00    2.25       1.0  T
   4    -83.3760047 -0.780366E-02  0.245E-01    2.06       1.0  T
   5    -83.3775697 -0.156508E-02  0.991E-02    2.05       1.0  T
   6    -83.3777604 -0.190679E-03  0.525E-02    2.07       1.0  T
   7    -83.3778151 -0.546567E-04  0.228E-02    2.08       1.0  T
   8    -83.3778182 -0.315261E-05  0.887E-03    2.09       1.5  T
   9    -83.3778212 -0.293380E-05  0.328E-03    2.08       4.2  T
  10    -83.3778213 -0.163773E-06  0.145E-03    2.08       9.5  T
  11    -83.3778214 -0.400171E-07  0.560E-04    2.08      24.5  T
  12    -83.3778214 -0.393543E-08  0.226E-04    2.08      60.7  T

   *** convergence criteria satisfied after 12 iterations ***

         #    Occupation            Energy/Eh            Energy/eV
      -------------------------------------------------------------
         1        2.0000           -0.7138874             -19.4259
       ...           ...                  ...                  ...
        68        2.0000           -0.4103262             -11.1655
        69        2.0000           -0.4069436             -11.0735
        70        2.0000           -0.4046303             -11.0106
        71        2.0000           -0.3987277             -10.8499
        72        2.0000           -0.3889415             -10.5836
        73        2.0000           -0.3763879             -10.2420
        74        2.0000           -0.3683898             -10.0244 (HOMO)
        75                         -0.2918339              -7.9412 (LUMO)
        76                         -0.2752830              -7.4908
        77                         -0.2277965              -6.1987
        78                         -0.2227956              -6.0626
        79                         -0.2075771              -5.6485
       ...                                ...                  ...
       137                          0.6628932              18.0382
      -------------------------------------------------------------
                  HL-Gap            0.0765559 Eh            2.0832 eV
             Fermi-level           -0.3301119 Eh           -8.9828 eV

 SCC (total)                   0 d,  0 h,  0 min,  0.763 sec
 SCC setup                      ...        0 min,  0.001 sec (  0.113%)
 Dispersion                     ...        0 min,  0.000 sec (  0.066%)
 classical contributions        ...        0 min,  0.000 sec (  0.035%)
 integral evaluation            ...        0 min,  0.002 sec (  0.316%)
 iterations                     ...        0 min,  0.743 sec ( 97.302%)
 molecular gradient             ...        0 min,  0.009 sec (  1.158%)
 printout                       ...        0 min,  0.008 sec (  1.006%)

         :::::::::::::::::::::::::::::::::::::::::::::::::::::
         ::                     SUMMARY                     ::
         :::::::::::::::::::::::::::::::::::::::::::::::::::::
         :: total energy             -82.327360661008 Eh    ::
         :: gradient norm              0.251016173139 Eh/a0 ::
         :: HOMO-LUMO gap              2.083192972025 eV    ::
         ::.................................................::
         :: SCC energy               -83.377821363507 Eh    ::
         :: -> isotropic ES            0.116120961925 Eh    ::
         :: -> anisotropic ES          0.009572338469 Eh    ::
         :: -> anisotropic XC          0.044719615055 Eh    ::
         :: -> dispersion             -0.053888030911 Eh    ::
         :: repulsion energy           1.049919065961 Eh    ::
         :: add. restraining           0.000000000000 Eh    ::
         :: total charge              -0.000000000000 e     ::
         :::::::::::::::::::::::::::::::::::::::::::::::::::::

      ----------------------------------------------------------- 
     |                   =====================                   |
     |                        A N C O P T                        |
     |                   =====================                   |
     |               Approximate Normal Coordinate               |
     |                Rational Function Optimizer                |
      ----------------------------------------------------------- 

          ...................................................
          :                      SETUP                      :
          :.................................................:
          :   optimization level            normal          :
          :   max. optcycles                   200          :
          :   ANC micro-cycles                  20          :
          :   degrees of freedom               153          :
          :.................................................:
          :   RF solver                   davidson          :
          :   write xtbopt.log                true          :
          :   linear?                        false          :
          :   energy convergence         0.5000000E-05 Eh   :
          :   grad. convergence          0.1000000E-02 Eh/α :
          :   maximium RF displ.         1.0000000          :
          :   Hlow (freq-cutoff)         0.1000000E-01      :
          :   Hmax (freq-cutoff)         5.0000000          :
          :   S6 in model hess.         20.0000000          :
          ...................................................

generating ANC from model Hessian ...
Using Lindh-Hessian (1995)
 Shifting diagonal of input Hessian by    9.9510258957352816E-003
 Lowest  eigenvalues of input Hessian
    0.000000    0.000000    0.000000    0.000000    0.000000    0.000000
    0.010000    0.010229    0.010259    0.010577    0.011059    0.011371
    0.011997    0.012059    0.013131    0.014203    0.015575    0.015818
 Highest eigenvalues
    1.949176    1.998415    2.034751    2.068010    2.147533    2.378848


........................................................................
.............................. CYCLE    1 ..............................
........................................................................
   1    -83.3778214 -0.833778E+02  0.759E-05    2.08       0.0  T
   2    -83.3778214 -0.539444E-10  0.453E-05    2.08     303.1  T
   3    -83.3778214 -0.139835E-10  0.298E-05    2.08     461.2  T
     SCC iter.                  ...        0 min,  0.193 sec
     gradient                   ...        0 min,  0.007 sec
 * total energy  :   -82.3273607 Eh     change       -0.9358843E-09 Eh
   gradient norm :     0.2510163 Eh/α   predicted     0.0000000E+00 (-100.00%)
   displ. norm   :     0.3905671 α      lambda       -0.6271339E-01
   maximum displ.:     0.0876166 α      in ANC's #74, #105, #37, ...

........................................................................
.............................. CYCLE    2 ..............................
........................................................................
   1    -83.4429395 -0.834429E+02  0.280E-01    2.29       0.0  T
   2    -83.4433009 -0.361355E-03  0.182E-01    2.27       1.0  T
   3    -83.4431838  0.117045E-03  0.864E-02    2.25       1.0  T
   4    -83.4434620 -0.278147E-03  0.185E-02    2.25       1.0  T
   5    -83.4434720 -0.100101E-04  0.749E-03    2.25       1.8  T
   6    -83.4434723 -0.321193E-06  0.336E-03    2.25       4.1  T
   7    -83.4434726 -0.294298E-06  0.979E-04    2.25      14.0  T
   8    -83.4434726 -0.130912E-07  0.414E-04    2.25      33.2  T
     SCC iter.                  ...        0 min,  0.478 sec
     gradient                   ...        0 min,  0.020 sec
 * total energy  :   -82.3713260 Eh     change       -0.4396531E-01 Eh
   gradient norm :     0.0979104 Eh/α   predicted    -0.3616167E-01 ( -17.75%)
   displ. norm   :     0.3855227 α      lambda       -0.1960713E-01
   maximum displ.:     0.1130084 α      in ANC's #26, #17, #29, ...

........................................................................
.............................. CYCLE    3 ..............................
........................................................................
   1    -83.4676017 -0.834676E+02  0.204E-01    2.35       0.0  T
   2    -83.4677603 -0.158580E-03  0.128E-01    2.35       1.0  T
   3    -83.4676996  0.607428E-04  0.573E-02    2.34       1.0  T
   4    -83.4678264 -0.126806E-03  0.104E-02    2.34       1.3  T
   5    -83.4678289 -0.257311E-05  0.475E-03    2.34       2.9  T
   6    -83.4678291 -0.116946E-06  0.171E-03    2.34       8.0  T
   7    -83.4678292 -0.951676E-07  0.587E-04    2.34      23.4  T
   8    -83.4678292 -0.405853E-08  0.221E-04    2.34      62.1  T
     SCC iter.                  ...        0 min,  0.416 sec
     gradient                   ...        0 min,  0.010 sec
 * total energy  :   -82.3831357 Eh     change       -0.1180968E-01 Eh
   gradient norm :     0.0264347 Eh/α   predicted    -0.1126065E-01 (  -4.65%)
   displ. norm   :     0.3730594 α      lambda       -0.4594171E-02
   maximum displ.:     0.1408834 α      in ANC's #20, #17, #26, ...

........................................................................
.............................. CYCLE    4 ..............................
........................................................................
   1    -83.4614643 -0.834615E+02  0.124E-01    2.32       0.0  T
   2    -83.4615080 -0.437797E-04  0.724E-02    2.34       1.0  T
   3    -83.4614846  0.234357E-04  0.264E-02    2.34       1.0  T
   4    -83.4615161 -0.314617E-04  0.688E-03    2.34       2.0  T
   5    -83.4615182 -0.210919E-05  0.225E-03    2.34       6.1  T
   6    -83.4615182 -0.837227E-08  0.112E-03    2.34      12.3  T
   7    -83.4615182 -0.310454E-07  0.311E-04    2.34      44.2  T
   8    -83.4615182 -0.796788E-09  0.134E-04    2.34     102.3  T
     SCC iter.                  ...        0 min,  0.481 sec
     gradient                   ...        0 min,  0.008 sec
 * total energy  :   -82.3867170 Eh     change       -0.3581339E-02 Eh
   gradient norm :     0.0265183 Eh/α   predicted    -0.2616814E-02 ( -26.93%)
   displ. norm   :     0.5316650 α      lambda       -0.4485338E-02
   maximum displ.:     0.2245540 α      in ANC's #20, #7, #17, ...

........................................................................
.............................. CYCLE    5 ..............................
........................................................................
   1    -83.4534959 -0.834535E+02  0.178E-01    2.30       0.0  T
   2    -83.4536056 -0.109676E-03  0.102E-01    2.33       1.0  T
   3    -83.4535640  0.415932E-04  0.402E-02    2.33       1.0  T
   4    -83.4536213 -0.572806E-04  0.115E-02    2.33       1.2  T
   5    -83.4536279 -0.660431E-05  0.335E-03    2.33       4.1  T
   6    -83.4536279 -0.377530E-07  0.165E-03    2.33       8.3  T
   7    -83.4536280 -0.606376E-07  0.437E-04    2.33      31.4  T
   8    -83.4536280 -0.870187E-09  0.194E-04    2.33      70.8  T
     SCC iter.                  ...        0 min,  0.465 sec
     gradient                   ...        0 min,  0.019 sec
 * total energy  :   -82.3901503 Eh     change       -0.3433299E-02 Eh
   gradient norm :     0.0269297 Eh/α   predicted    -0.2876623E-02 ( -16.21%)
   displ. norm   :     0.5394222 α      lambda       -0.3435651E-02
   maximum displ.:     0.2392704 α      in ANC's #20, #7, #18, ...

........................................................................
.............................. CYCLE    6 ..............................
........................................................................
   1    -83.4518223 -0.834518E+02  0.184E-01    2.29       0.0  T
   2    -83.4519408 -0.118423E-03  0.105E-01    2.32       1.0  T
   3    -83.4519023  0.384978E-04  0.415E-02    2.31       1.0  T
   4    -83.4519563 -0.540212E-04  0.121E-02    2.32       1.1  T
   5    -83.4519640 -0.770299E-05  0.354E-03    2.32       3.9  T
   6    -83.4519641 -0.643331E-07  0.170E-03    2.32       8.1  T
   7    -83.4519641 -0.558764E-07  0.438E-04    2.32      31.3  T
   8    -83.4519641 -0.890083E-09  0.199E-04    2.32      69.0  T
     SCC iter.                  ...        0 min,  0.433 sec
     gradient                   ...        0 min,  0.011 sec
 * total energy  :   -82.3928398 Eh     change       -0.2689515E-02 Eh
   gradient norm :     0.0229434 Eh/α   predicted    -0.2217681E-02 ( -17.54%)
   displ. norm   :     0.5323830 α      lambda       -0.2977166E-02
   maximum displ.:     0.2487402 α      in ANC's #7, #20, #6, ...

........................................................................
.............................. CYCLE    7 ..............................
........................................................................
   1    -83.4580886 -0.834581E+02  0.186E-01    2.30       0.0  T
   2    -83.4581824 -0.938533E-04  0.107E-01    2.32       1.0  T
   3    -83.4581548  0.276659E-04  0.372E-02    2.31       1.0  T
   4    -83.4581955 -0.407501E-04  0.943E-03    2.32       1.5  T
   5    -83.4582000 -0.451512E-05  0.362E-03    2.32       3.8  T
   6    -83.4582001 -0.965225E-07  0.169E-03    2.32       8.1  T
   7    -83.4582002 -0.605185E-07  0.417E-04    2.32      32.9  T
   8    -83.4582002 -0.109279E-08  0.202E-04    2.32      68.1  T
     SCC iter.                  ...        0 min,  0.469 sec
     gradient                   ...        0 min,  0.019 sec
 * total energy  :   -82.3951145 Eh     change       -0.2274703E-02 Eh
   gradient norm :     0.0188800 Eh/α   predicted    -0.1910620E-02 ( -16.01%)
   displ. norm   :     0.4956120 α      lambda       -0.2379274E-02
   maximum displ.:     0.2412493 α      in ANC's #7, #20, #6, ...

........................................................................
.............................. CYCLE    8 ..............................
........................................................................
   1    -83.4704849 -0.834705E+02  0.157E-01    2.30       0.0  T
   2    -83.4705436 -0.587219E-04  0.910E-02    2.31       1.0  T
   3    -83.4705276  0.160224E-04  0.282E-02    2.31       1.0  T
   4    -83.4705520 -0.244807E-04  0.754E-03    2.31       1.8  T
   5    -83.4705546 -0.258984E-05  0.322E-03    2.31       4.3  T
   6    -83.4705547 -0.797798E-07  0.136E-03    2.31      10.1  T
   7    -83.4705547 -0.376636E-07  0.376E-04    2.31      36.5  T
   8    -83.4705547 -0.702983E-09  0.172E-04    2.31      80.0  T
     SCC iter.                  ...        0 min,  0.500 sec
     gradient                   ...        0 min,  0.009 sec
 * total energy  :   -82.3967424 Eh     change       -0.1627885E-02 Eh
   gradient norm :     0.0149771 Eh/α   predicted    -0.1481855E-02 (  -8.97%)
   displ. norm   :     0.4836135 α      lambda       -0.1574163E-02
   maximum displ.:     0.2263443 α      in ANC's #7, #6, #20, ...

........................................................................
.............................. CYCLE    9 ..............................
........................................................................
   1    -83.4746241 -0.834746E+02  0.154E-01    2.30       0.0  T
   2    -83.4746503 -0.261878E-04  0.896E-02    2.31       1.0  T
   3    -83.4746394  0.109223E-04  0.225E-02    2.31       1.0  T
   4    -83.4746570 -0.175495E-04  0.499E-03    2.31       2.8  T
   5    -83.4746573 -0.332390E-06  0.257E-03    2.31       5.3  T
   6    -83.4746573 -0.500232E-07  0.723E-04    2.31      19.0  T
   7    -83.4746573 -0.133255E-07  0.325E-04    2.31      42.3  T
     SCC iter.                  ...        0 min,  0.435 sec
     gradient                   ...        0 min,  0.009 sec
 * total energy  :   -82.3976690 Eh     change       -0.9265725E-03 Eh
   gradient norm :     0.0197363 Eh/α   predicted    -0.9711742E-03 (   4.81%)
   displ. norm   :     0.3773951 α      lambda       -0.1237244E-02
   maximum displ.:     0.1810412 α      in ANC's #7, #6, #11, ...

........................................................................
.............................. CYCLE   10 ..............................
........................................................................
   1    -83.4842590 -0.834843E+02  0.103E-01    2.29       0.0  T
   2    -83.4842654 -0.642090E-05  0.605E-02    2.29       1.0  T
   3    -83.4842658 -0.374443E-06  0.674E-03    2.29       2.0  T
   4    -83.4842669 -0.108526E-05  0.274E-03    2.29       5.0  T
   5    -83.4842669 -0.281961E-07  0.138E-03    2.29       9.9  T
   6    -83.4842670 -0.475639E-07  0.420E-04    2.29      32.7  T
   7    -83.4842670 -0.376139E-08  0.174E-04    2.29      79.2  T
     SCC iter.                  ...        0 min,  0.468 sec
     gradient                   ...        0 min,  0.019 sec
 * total energy  :   -82.3980934 Eh     change       -0.4244380E-03 Eh
   gradient norm :     0.0227143 Eh/α   predicted    -0.7067364E-03 (  66.51%)
   displ. norm   :     0.3690288 α      lambda       -0.1332488E-02
   maximum displ.:     0.1679598 α      in ANC's #6, #7, #11, ...

........................................................................
.............................. CYCLE   11 ..............................
........................................................................
   1    -83.4786002 -0.834786E+02  0.105E-01    2.27       0.0  T
   2    -83.4786115 -0.112753E-04  0.618E-02    2.28       1.0  T
   3    -83.4785906  0.209194E-04  0.218E-02    2.28       1.0  T
   4    -83.4786171 -0.264950E-04  0.428E-03    2.28       3.2  T
   5    -83.4786173 -0.264250E-06  0.220E-03    2.28       6.2  T
   6    -83.4786173 -0.179696E-07  0.513E-04    2.28      26.8  T
   7    -83.4786174 -0.595654E-08  0.221E-04    2.28      62.2  T
     SCC iter.                  ...        0 min,  0.416 sec
     gradient                   ...        0 min,  0.008 sec
 * total energy  :   -82.3987888 Eh     change       -0.6954164E-03 Eh
   gradient norm :     0.0134908 Eh/α   predicted    -0.7569788E-03 (   8.85%)
   displ. norm   :     0.2395701 α      lambda       -0.6038885E-03
   maximum displ.:     0.1201728 α      in ANC's #6, #12, #11, ...

........................................................................
.............................. CYCLE   12 ..............................
........................................................................
   1    -83.4761138 -0.834761E+02  0.697E-02    2.29       0.0  T
   2    -83.4761189 -0.509797E-05  0.412E-02    2.29       1.0  T
   3    -83.4761181  0.818161E-06  0.840E-03    2.30       1.6  T
   4    -83.4761205 -0.239141E-05  0.310E-03    2.30       4.4  T
   5    -83.4761206 -0.123341E-06  0.172E-03    2.30       8.0  T
   6    -83.4761206 -0.403641E-07  0.597E-04    2.30      23.0  T
   7    -83.4761206 -0.469721E-08  0.244E-04    2.30      56.3  T
     SCC iter.                  ...        0 min,  0.366 sec
     gradient                   ...        0 min,  0.019 sec
 * total energy  :   -82.3990063 Eh     change       -0.2174484E-03 Eh
   gradient norm :     0.0193830 Eh/α   predicted    -0.3192859E-03 (  46.83%)
   displ. norm   :     0.3014482 α      lambda       -0.8897999E-03
   maximum displ.:     0.1517138 α      in ANC's #6, #12, #1, ...

........................................................................
.............................. CYCLE   13 ..............................
........................................................................
   1    -83.4780274 -0.834780E+02  0.925E-02    2.31       0.0  T
   2    -83.4780336 -0.620430E-05  0.546E-02    2.31       1.0  T
   3    -83.4780301  0.348685E-05  0.109E-02    2.31       1.3  T
   4    -83.4780351 -0.498993E-05  0.279E-03    2.31       4.9  T
   5    -83.4780353 -0.151905E-06  0.143E-03    2.31       9.6  T
   6    -83.4780353 -0.156117E-07  0.434E-04    2.31      31.7  T
   7    -83.4780353 -0.695678E-08  0.177E-04    2.31      77.5  T
     SCC iter.                  ...        0 min,  0.365 sec
     gradient                   ...        0 min,  0.021 sec
 * total energy  :   -82.3994723 Eh     change       -0.4659794E-03 Eh
   gradient norm :     0.0143161 Eh/α   predicted    -0.4853362E-03 (   4.15%)
   displ. norm   :     0.2931971 α      lambda       -0.6001065E-03
   maximum displ.:     0.1268283 α      in ANC's #6, #4, #7, ...

........................................................................
.............................. CYCLE   14 ..............................
........................................................................
   1    -83.4758039 -0.834758E+02  0.847E-02    2.30       0.0  T
   2    -83.4758285 -0.245904E-04  0.515E-02    2.31       1.0  T
   3    -83.4758197  0.879586E-05  0.221E-02    2.31       1.0  T
   4    -83.4758334 -0.137291E-04  0.540E-03    2.31       2.5  T
   5    -83.4758348 -0.138218E-05  0.170E-03    2.31       8.1  T
   6    -83.4758348 -0.220733E-07  0.635E-04    2.31      21.6  T
   7    -83.4758348 -0.559007E-08  0.237E-04    2.31      58.0  T
     SCC iter.                  ...        0 min,  0.393 sec
     gradient                   ...        0 min,  0.007 sec
 * total energy  :   -82.3997617 Eh     change       -0.2894658E-03 Eh
   gradient norm :     0.0142800 Eh/α   predicted    -0.3258528E-03 (  12.57%)
   displ. norm   :     0.2943983 α      lambda       -0.4372744E-03
   maximum displ.:     0.1546427 α      in ANC's #6, #5, #1, ...

........................................................................
.............................. CYCLE   15 ..............................
........................................................................
   1    -83.4738714 -0.834739E+02  0.779E-02    2.28       0.0  T
   2    -83.4738843 -0.129710E-04  0.459E-02    2.29       1.0  T
   3    -83.4738828  0.153989E-05  0.124E-02    2.29       1.1  T
   4    -83.4738863 -0.347943E-05  0.245E-03    2.29       5.6  T
   5    -83.4738864 -0.692711E-07  0.140E-03    2.29       9.8  T
   6    -83.4738864 -0.438574E-07  0.544E-04    2.29      25.2  T
   7    -83.4738864 -0.579044E-08  0.207E-04    2.29      66.2  T
     SCC iter.                  ...        0 min,  0.377 sec
     gradient                   ...        0 min,  0.019 sec
 * total energy  :   -82.3999930 Eh     change       -0.2313249E-03 Eh
   gradient norm :     0.0108025 Eh/α   predicted    -0.2375877E-03 (   2.71%)
   displ. norm   :     0.2635539 α      lambda       -0.4073910E-03
   maximum displ.:     0.1295424 α      in ANC's #6, #1, #4, ...

........................................................................
.............................. CYCLE   16 ..............................
........................................................................
   1    -83.4798232 -0.834798E+02  0.759E-02    2.32       0.0  T
   2    -83.4798273 -0.415387E-05  0.449E-02    2.32       1.0  T
   3    -83.4798251  0.222213E-05  0.837E-03    2.32       1.6  T
   4    -83.4798284 -0.336039E-05  0.228E-03    2.32       6.0  T
   5    -83.4798285 -0.654660E-07  0.120E-03    2.32      11.4  T
   6    -83.4798285 -0.231662E-07  0.345E-04    2.32      39.8  T
   7    -83.4798285 -0.370414E-08  0.155E-04    2.32      88.4  T
     SCC iter.                  ...        0 min,  0.430 sec
     gradient                   ...        0 min,  0.009 sec
 * total energy  :   -82.4002117 Eh     change       -0.2186295E-03 Eh
   gradient norm :     0.0079986 Eh/α   predicted    -0.2178446E-03 (  -0.36%)
   displ. norm   :     0.3003921 α      lambda       -0.2647291E-03
   maximum displ.:     0.1430487 α      in ANC's #4, #6, #1, ...

........................................................................
.............................. CYCLE   17 ..............................
........................................................................
   1    -83.4754684 -0.834755E+02  0.850E-02    2.31       0.0  T
   2    -83.4754714 -0.300712E-05  0.502E-02    2.31       1.0  T
   3    -83.4754700  0.137555E-05  0.719E-03    2.31       1.9  T
   4    -83.4754723 -0.225802E-05  0.257E-03    2.31       5.3  T
   5    -83.4754724 -0.105538E-06  0.124E-03    2.31      11.1  T
   6    -83.4754724 -0.197505E-07  0.351E-04    2.31      39.2  T
   7    -83.4754724 -0.110965E-08  0.148E-04    2.31      92.5  T
     SCC iter.                  ...        0 min,  0.362 sec
     gradient                   ...        0 min,  0.010 sec
 * total energy  :   -82.4003306 Eh     change       -0.1189004E-03 Eh
   gradient norm :     0.0086709 Eh/α   predicted    -0.1443097E-03 (  21.37%)
   displ. norm   :     0.1899082 α      lambda       -0.2419668E-03
   maximum displ.:     0.0960721 α      in ANC's #4, #1, #11, ...

........................................................................
.............................. CYCLE   18 ..............................
........................................................................
   1    -83.4797421 -0.834797E+02  0.455E-02    2.31       0.0  T
   2    -83.4797454 -0.339269E-05  0.269E-02    2.31       1.0  T
   3    -83.4797446  0.875212E-06  0.711E-03    2.31       1.9  T
   4    -83.4797460 -0.142033E-05  0.168E-03    2.31       8.2  T
   5    -83.4797461 -0.879463E-07  0.737E-04    2.31      18.6  T
   6    -83.4797461 -0.227173E-08  0.281E-04    2.31      48.9  T
     SCC iter.                  ...        0 min,  0.433 sec
     gradient                   ...        0 min,  0.020 sec
 * total energy  :   -82.4004489 Eh     change       -0.1182938E-03 Eh
   gradient norm :     0.0085860 Eh/α   predicted    -0.1253498E-03 (   5.96%)
   displ. norm   :     0.1967027 α      lambda       -0.1685702E-03
   maximum displ.:     0.0981635 α      in ANC's #1, #4, #6, ...

........................................................................
.............................. CYCLE   19 ..............................
........................................................................
   1    -83.4786928 -0.834787E+02  0.474E-02    2.30       0.0  T
   2    -83.4786962 -0.332586E-05  0.278E-02    2.29       1.0  T
   3    -83.4786951  0.102163E-05  0.748E-03    2.29       1.8  T
   4    -83.4786967 -0.151473E-05  0.168E-03    2.29       8.2  T
   5    -83.4786967 -0.896478E-07  0.672E-04    2.29      20.4  T
   6    -83.4786968 -0.110755E-08  0.285E-04    2.29      48.2  T
     SCC iter.                  ...        0 min,  0.345 sec
     gradient                   ...        0 min,  0.008 sec
 * total energy  :   -82.4005697 Eh     change       -0.1208566E-03 Eh
   gradient norm :     0.0057883 Eh/α   predicted    -0.8755632E-04 ( -27.55%)
   displ. norm   :     0.2798082 α      lambda       -0.2063000E-03
   maximum displ.:     0.1557916 α      in ANC's #4, #1, #5, ...

........................................................................
.............................. CYCLE   20 ..............................
........................................................................
   1    -83.4774171 -0.834774E+02  0.613E-02    2.28       0.0  T
   2    -83.4774202 -0.310254E-05  0.361E-02    2.28       1.0  T
   3    -83.4774178  0.244309E-05  0.829E-03    2.28       1.7  T
   4    -83.4774210 -0.317449E-05  0.153E-03    2.28       9.0  T
   5    -83.4774210 -0.681591E-07  0.682E-04    2.28      20.1  T
   6    -83.4774210 -0.106232E-08  0.231E-04    2.28      59.4  T
     SCC iter.                  ...        0 min,  0.328 sec
     gradient                   ...        0 min,  0.008 sec
 * total energy  :   -82.4007257 Eh     change       -0.1559801E-03 Eh
   gradient norm :     0.0060779 Eh/α   predicted    -0.1112295E-03 ( -28.69%)
   displ. norm   :     0.3882160 α      lambda       -0.2451531E-03
   maximum displ.:     0.2119572 α      in ANC's #4, #1, #5, ...
 * RMSD in coord.:     0.7036563 α      energy gain  -0.7336504E-01 Eh

generating ANC from model Hessian ...
Using Lindh-Hessian (1995)
 Shifting diagonal of input Hessian by    9.9472677110020238E-003
 Lowest  eigenvalues of input Hessian
    0.000000    0.000000    0.000000    0.000000    0.000000    0.000000
    0.010000    0.010274    0.010344    0.010620    0.011176    0.011293
    0.012141    0.012226    0.013486    0.014122    0.015260    0.015543
 Highest eigenvalues
    1.997590    2.019638    2.098057    2.145088    2.276732    2.384986


........................................................................
.............................. CYCLE   21 ..............................
........................................................................
   1    -83.4754372 -0.834754E+02  0.818E-02    2.27       0.0  T
   2    -83.4754401 -0.291719E-05  0.482E-02    2.27       1.0  T
   3    -83.4754385  0.159742E-05  0.673E-03    2.27       2.0  T
   4    -83.4754408 -0.224319E-05  0.173E-03    2.26       8.0  T
   5    -83.4754408 -0.679236E-07  0.862E-04    2.27      15.9  T
   6    -83.4754409 -0.518988E-08  0.280E-04    2.27      49.0  T
     SCC iter.                  ...        0 min,  0.381 sec
     gradient                   ...        0 min,  0.008 sec
 * total energy  :   -82.4009024 Eh     change       -0.1766900E-03 Eh
   gradient norm :     0.0078913 Eh/α   predicted     0.0000000E+00 (-100.00%)
   displ. norm   :     0.0678634 α      lambda       -0.1539238E-03
   maximum displ.:     0.0278587 α      in ANC's #4, #1, #8, ...

........................................................................
.............................. CYCLE   22 ..............................
........................................................................
   1    -83.4779468 -0.834779E+02  0.188E-02    2.27       0.0  T
   2    -83.4779475 -0.720880E-06  0.111E-02    2.27       1.2  T
   3    -83.4779471  0.383993E-06  0.398E-03    2.27       3.4  T
   4    -83.4779477 -0.555838E-06  0.940E-04    2.27      14.6  T
   5    -83.4779477 -0.319888E-07  0.372E-04    2.27      36.9  T
     SCC iter.                  ...        0 min,  0.315 sec
     gradient                   ...        0 min,  0.010 sec
 * total energy  :   -82.4010214 Eh     change       -0.1190474E-03 Eh
   gradient norm :     0.0036192 Eh/α   predicted    -0.7731659E-04 ( -35.05%)
   displ. norm   :     0.1641778 α      lambda       -0.1880028E-03
   maximum displ.:     0.0743479 α      in ANC's #4, #1, #7, ...

........................................................................
.............................. CYCLE   23 ..............................
........................................................................
   1    -83.4805047 -0.834805E+02  0.360E-02    2.29       0.0  T
   2    -83.4805061 -0.141993E-05  0.213E-02    2.29       1.0  T
   3    -83.4805049  0.112276E-05  0.583E-03    2.29       2.4  T
   4    -83.4805065 -0.150306E-05  0.143E-03    2.29       9.6  T
   5    -83.4805065 -0.529333E-07  0.665E-04    2.29      20.7  T
   6    -83.4805065 -0.267151E-08  0.247E-04    2.29      55.6  T
     SCC iter.                  ...        0 min,  0.465 sec
     gradient                   ...        0 min,  0.008 sec
 * total energy  :   -82.4011490 Eh     change       -0.1275280E-03 Eh
   gradient norm :     0.0036541 Eh/α   predicted    -0.9653622E-04 ( -24.30%)
   displ. norm   :     0.1801343 α      lambda       -0.1153527E-03
   maximum displ.:     0.0843190 α      in ANC's #4, #1, #7, ...

........................................................................
.............................. CYCLE   24 ..............................
........................................................................
   1    -83.4807648 -0.834808E+02  0.352E-02    2.30       0.0  T
   2    -83.4807656 -0.742210E-06  0.208E-02    2.30       1.0  T
   3    -83.4807652  0.357981E-06  0.356E-03    2.30       3.9  T
   4    -83.4807658 -0.562903E-06  0.114E-03    2.30      12.0  T
   5    -83.4807658 -0.213805E-07  0.597E-04    2.30      23.0  T
   6    -83.4807658 -0.393794E-08  0.191E-04    2.30      71.8  T
     SCC iter.                  ...        0 min,  0.385 sec
     gradient                   ...        0 min,  0.009 sec
 * total energy  :   -82.4012435 Eh     change       -0.9453361E-04 Eh
   gradient norm :     0.0056532 Eh/α   predicted    -0.5954863E-04 ( -37.01%)
   displ. norm   :     0.3285000 α      lambda       -0.1937496E-03
   maximum displ.:     0.1536393 α      in ANC's #1, #7, #4, ...

........................................................................
.............................. CYCLE   25 ..............................
........................................................................
   1    -83.4795064 -0.834795E+02  0.645E-02    2.31       0.0  T
   2    -83.4795083 -0.188670E-05  0.382E-02    2.30       1.0  T
   3    -83.4795078  0.437261E-06  0.478E-03    2.30       2.9  T
   4    -83.4795088 -0.941427E-06  0.176E-03    2.30       7.8  T
   5    -83.4795088 -0.364513E-07  0.992E-04    2.30      13.8  T
   6    -83.4795088 -0.165223E-07  0.285E-04    2.30      48.3  T
     SCC iter.                  ...        0 min,  0.369 sec
     gradient                   ...        0 min,  0.020 sec
 * total energy  :   -82.4014004 Eh     change       -0.1568736E-03 Eh
   gradient norm :     0.0065889 Eh/α   predicted    -0.1073299E-03 ( -31.58%)
   displ. norm   :     0.4215979 α      lambda       -0.2271112E-03
   maximum displ.:     0.2094360 α      in ANC's #7, #1, #4, ...

........................................................................
.............................. CYCLE   26 ..............................
........................................................................
   1    -83.4771804 -0.834772E+02  0.835E-02    2.31       0.0  T
   2    -83.4771832 -0.279095E-05  0.493E-02    2.30       1.0  T
   3    -83.4771827  0.538989E-06  0.568E-03    2.30       2.4  T
   4    -83.4771840 -0.128044E-05  0.213E-03    2.30       6.4  T
   5    -83.4771840 -0.493077E-07  0.118E-03    2.30      11.7  T
   6    -83.4771841 -0.263080E-07  0.317E-04    2.30      43.4  T
   7    -83.4771841 -0.106191E-08  0.136E-04    2.30     100.8  T
     SCC iter.                  ...        0 min,  0.554 sec
     gradient                   ...        0 min,  0.022 sec
 * total energy  :   -82.4015793 Eh     change       -0.1788771E-03 Eh
   gradient norm :     0.0064296 Eh/α   predicted    -0.1337488E-03 ( -25.23%)
   displ. norm   :     0.3790216 α      lambda       -0.2176845E-03
   maximum displ.:     0.1954912 α      in ANC's #7, #1, #4, ...

........................................................................
.............................. CYCLE   27 ..............................
........................................................................
   1    -83.4760770 -0.834761E+02  0.775E-02    2.29       0.0  T
   2    -83.4760791 -0.212990E-05  0.456E-02    2.29       1.0  T
   3    -83.4760787  0.427114E-06  0.503E-03    2.29       2.7  T
   4    -83.4760797 -0.992718E-06  0.193E-03    2.29       7.1  T
   5    -83.4760797 -0.484959E-07  0.102E-03    2.29      13.5  T
   6    -83.4760797 -0.160851E-07  0.270E-04    2.29      50.8  T
   7    -83.4760798 -0.793207E-09  0.134E-04    2.29     102.5  T
     SCC iter.                  ...        0 min,  0.353 sec
     gradient                   ...        0 min,  0.019 sec
 * total energy  :   -82.4017576 Eh     change       -0.1783884E-03 Eh
   gradient norm :     0.0057193 Eh/α   predicted    -0.1244801E-03 ( -30.22%)
   displ. norm   :     0.4176506 α      lambda       -0.2642306E-03
   maximum displ.:     0.2208364 α      in ANC's #7, #1, #4, ...

........................................................................
.............................. CYCLE   28 ..............................
........................................................................
   1    -83.4764627 -0.834765E+02  0.891E-02    2.28       0.0  T
   2    -83.4764654 -0.273935E-05  0.522E-02    2.28       1.0  T
   3    -83.4764652  0.203875E-06  0.511E-03    2.27       2.7  T
   4    -83.4764662 -0.939666E-06  0.211E-03    2.27       6.5  T
   5    -83.4764662 -0.441102E-07  0.108E-03    2.27      12.8  T
   6    -83.4764662 -0.195299E-07  0.307E-04    2.27      44.8  T
   7    -83.4764662 -0.133433E-08  0.155E-04    2.27      88.5  T
     SCC iter.                  ...        0 min,  0.518 sec
     gradient                   ...        0 min,  0.019 sec
 * total energy  :   -82.4019714 Eh     change       -0.2137369E-03 Eh
   gradient norm :     0.0065804 Eh/α   predicted    -0.1551606E-03 ( -27.41%)
   displ. norm   :     0.4945109 α      lambda       -0.2778479E-03
   maximum displ.:     0.2652192 α      in ANC's #7, #1, #4, ...

........................................................................
.............................. CYCLE   29 ..............................
........................................................................
   1    -83.4766648 -0.834767E+02  0.107E-01    2.26       0.0  T
   2    -83.4766682 -0.337199E-05  0.627E-02    2.26       1.0  T
   3    -83.4766685 -0.304858E-06  0.482E-03    2.26       2.8  T
   4    -83.4766691 -0.658255E-06  0.237E-03    2.26       5.8  T
   5    -83.4766692 -0.487151E-07  0.114E-03    2.26      12.0  T
   6    -83.4766692 -0.275092E-07  0.342E-04    2.26      40.2  T
   7    -83.4766692 -0.157519E-08  0.176E-04    2.26      77.9  T
     SCC iter.                  ...        0 min,  0.416 sec
     gradient                   ...        0 min,  0.009 sec
 * total energy  :   -82.4022019 Eh     change       -0.2305492E-03 Eh
   gradient norm :     0.0074725 Eh/α   predicted    -0.1728984E-03 ( -25.01%)
   displ. norm   :     0.5205605 α      lambda       -0.3109259E-03
   maximum displ.:     0.2861036 α      in ANC's #1, #7, #4, ...

........................................................................
.............................. CYCLE   30 ..............................
........................................................................
   1    -83.4784319 -0.834784E+02  0.115E-01    2.26       0.0  T
   2    -83.4784360 -0.413433E-05  0.672E-02    2.25       1.0  T
   3    -83.4784351  0.895053E-06  0.681E-03    2.25       2.0  T
   4    -83.4784372 -0.205540E-05  0.294E-03    2.25       4.7  T
   5    -83.4784373 -0.164161E-06  0.146E-03    2.25       9.4  T
   6    -83.4784374 -0.261493E-07  0.415E-04    2.25      33.1  T
   7    -83.4784374 -0.277818E-08  0.200E-04    2.25      68.6  T
     SCC iter.                  ...        0 min,  0.408 sec
     gradient                   ...        0 min,  0.007 sec
 * total energy  :   -82.4024532 Eh     change       -0.2512365E-03 Eh
   gradient norm :     0.0072169 Eh/α   predicted    -0.1975996E-03 ( -21.35%)
   displ. norm   :     0.6194327 α      lambda       -0.2978422E-03
   maximum displ.:     0.3436315 α      in ANC's #1, #7, #4, ...

........................................................................
.............................. CYCLE   31 ..............................
........................................................................
   1    -83.4765227 -0.834765E+02  0.132E-01    2.26       0.0  T
   2    -83.4765278 -0.510276E-05  0.776E-02    2.25       1.0  T
   3    -83.4765260  0.186863E-05  0.859E-03    2.25       1.6  T
   4    -83.4765294 -0.347087E-05  0.349E-03    2.25       3.9  T
   5    -83.4765297 -0.219380E-06  0.166E-03    2.25       8.3  T
   6    -83.4765297 -0.269357E-07  0.492E-04    2.25      27.9  T
   7    -83.4765297 -0.258376E-08  0.236E-04    2.25      58.2  T
     SCC iter.                  ...        0 min,  0.482 sec
     gradient                   ...        0 min,  0.018 sec
 * total energy  :   -82.4026823 Eh     change       -0.2291807E-03 Eh
   gradient norm :     0.0068347 Eh/α   predicted    -0.2060626E-03 ( -10.09%)
   displ. norm   :     0.4792151 α      lambda       -0.3997940E-03
   maximum displ.:     0.2922048 α      in ANC's #1, #7, #2, ...

........................................................................
.............................. CYCLE   32 ..............................
........................................................................
   1    -83.4838843 -0.834839E+02  0.107E-01    2.28       0.0  T
   2    -83.4838915 -0.726008E-05  0.631E-02    2.28       1.0  T
   3    -83.4838770  0.144942E-04  0.177E-02    2.28       1.0  T
   4    -83.4838946 -0.175782E-04  0.336E-03    2.28       4.1  T
   5    -83.4838948 -0.225068E-06  0.170E-03    2.28       8.1  T
   6    -83.4838948 -0.109028E-07  0.426E-04    2.28      32.2  T
   7    -83.4838948 -0.271908E-08  0.200E-04    2.28      68.6  T
     SCC iter.                  ...        0 min,  0.446 sec
     gradient                   ...        0 min,  0.006 sec
 * total energy  :   -82.4028543 Eh     change       -0.1719191E-03 Eh
   gradient norm :     0.0069373 Eh/α   predicted    -0.2458038E-03 (  42.98%)
   displ. norm   :     0.5446160 α      lambda       -0.2718658E-03
   maximum displ.:     0.3099335 α      in ANC's #1, #7, #4, ...

........................................................................
.............................. CYCLE   33 ..............................
........................................................................
   1    -83.4770875 -0.834771E+02  0.113E-01    2.28       0.0  T
   2    -83.4770922 -0.470399E-05  0.666E-02    2.28       1.0  T
   3    -83.4770923 -0.563318E-07  0.661E-03    2.28       2.1  T
   4    -83.4770936 -0.127650E-05  0.269E-03    2.28       5.1  T
   5    -83.4770936 -0.198086E-07  0.127E-03    2.28      10.8  T
   6    -83.4770936 -0.333630E-07  0.476E-04    2.28      28.9  T
   7    -83.4770936 -0.288459E-08  0.187E-04    2.28      73.4  T
     SCC iter.                  ...        0 min,  0.402 sec
     gradient                   ...        0 min,  0.009 sec
 * total energy  :   -82.4030132 Eh     change       -0.1589555E-03 Eh
   gradient norm :     0.0066663 Eh/α   predicted    -0.1762534E-03 (  10.88%)
   displ. norm   :     0.1527893 α      lambda       -0.1149893E-03
   maximum displ.:     0.1017659 α      in ANC's #1, #7, #2, ...

........................................................................
.............................. CYCLE   34 ..............................
........................................................................
   1    -83.4778172 -0.834778E+02  0.290E-02    2.28       0.0  T
   2    -83.4778178 -0.544638E-06  0.170E-02    2.28       1.0  T
   3    -83.4778176  0.164097E-06  0.281E-03    2.29       4.9  T
   4    -83.4778179 -0.291537E-06  0.819E-04    2.29      16.8  T
   5    -83.4778179 -0.965669E-08  0.470E-04    2.29      29.2  T
     SCC iter.                  ...        0 min,  0.280 sec
     gradient                   ...        0 min,  0.007 sec
 * total energy  :   -82.4031098 Eh     change       -0.9654069E-04 Eh
   gradient norm :     0.0048719 Eh/α   predicted    -0.5884253E-04 ( -39.05%)
   displ. norm   :     0.3568852 α      lambda       -0.2285252E-03
   maximum displ.:     0.2469806 α      in ANC's #1, #7, #2, ...

........................................................................
.............................. CYCLE   35 ..............................
........................................................................
   1    -83.4800200 -0.834800E+02  0.646E-02    2.29       0.0  T
   2    -83.4800226 -0.261551E-05  0.378E-02    2.30       1.0  T
   3    -83.4800223  0.359414E-06  0.535E-03    2.30       2.6  T
   4    -83.4800233 -0.984587E-06  0.178E-03    2.30       7.7  T
   5    -83.4800233 -0.251752E-07  0.101E-03    2.30      13.6  T
   6    -83.4800233 -0.170870E-07  0.333E-04    2.30      41.2  T
   7    -83.4800233 -0.258922E-08  0.139E-04    2.30      98.6  T
     SCC iter.                  ...        0 min,  0.418 sec
     gradient                   ...        0 min,  0.019 sec
 * total energy  :   -82.4032697 Eh     change       -0.1599386E-03 Eh
   gradient norm :     0.0043884 Eh/α   predicted    -0.1288180E-03 ( -19.46%)
   displ. norm   :     0.5199537 α      lambda       -0.1575463E-03
   maximum displ.:     0.3526181 α      in ANC's #1, #7, #2, ...

........................................................................
.............................. CYCLE   36 ..............................
........................................................................
   1    -83.4784645 -0.834785E+02  0.980E-02    2.30       0.0  T
   2    -83.4784678 -0.326378E-05  0.574E-02    2.30       1.0  T
   3    -83.4784679 -0.120214E-06  0.538E-03    2.30       2.6  T
   4    -83.4784688 -0.875565E-06  0.240E-03    2.30       5.7  T
   5    -83.4784688 -0.392384E-07  0.120E-03    2.30      11.4  T
   6    -83.4784688 -0.180209E-07  0.353E-04    2.30      38.9  T
   7    -83.4784688 -0.136947E-08  0.173E-04    2.30      79.5  T
     SCC iter.                  ...        0 min,  0.411 sec
     gradient                   ...        0 min,  0.007 sec
 * total energy  :   -82.4033897 Eh     change       -0.1200073E-03 Eh
   gradient norm :     0.0061530 Eh/α   predicted    -0.1000781E-03 ( -16.61%)
   displ. norm   :     0.3714080 α      lambda       -0.1613868E-03
   maximum displ.:     0.2741095 α      in ANC's #1, #2, #7, ...

........................................................................
.............................. CYCLE   37 ..............................
........................................................................
   1    -83.4807482 -0.834807E+02  0.625E-02    2.30       0.0  T
   2    -83.4807510 -0.284845E-05  0.366E-02    2.31       1.0  T
   3    -83.4807502  0.756450E-06  0.581E-03    2.30       2.4  T
   4    -83.4807516 -0.139672E-05  0.194E-03    2.31       7.1  T
   5    -83.4807517 -0.727305E-07  0.109E-03    2.30      12.6  T
   6    -83.4807517 -0.109634E-07  0.422E-04    2.30      32.6  T
   7    -83.4807517 -0.437737E-08  0.166E-04    2.30      83.0  T
     SCC iter.                  ...        0 min,  0.418 sec
     gradient                   ...        0 min,  0.020 sec
 * total energy  :   -82.4035159 Eh     change       -0.1261579E-03 Eh
   gradient norm :     0.0050225 Eh/α   predicted    -0.9182519E-04 ( -27.21%)
   displ. norm   :     0.5634767 α      lambda       -0.1854364E-03
   maximum displ.:     0.4102475 α      in ANC's #1, #7, #2, ...

........................................................................
.............................. CYCLE   38 ..............................
........................................................................
   1    -83.4792527 -0.834793E+02  0.975E-02    2.30       0.0  T
   2    -83.4792575 -0.487264E-05  0.570E-02    2.30       1.0  T
   3    -83.4792544  0.309639E-05  0.908E-03    2.30       1.5  T
   4    -83.4792589 -0.442992E-05  0.309E-03    2.30       4.4  T
   5    -83.4792591 -0.248997E-06  0.166E-03    2.30       8.3  T
   6    -83.4792591 -0.178536E-07  0.568E-04    2.30      24.2  T
   7    -83.4792591 -0.644226E-08  0.223E-04    2.30      61.6  T
     SCC iter.                  ...        0 min,  0.400 sec
     gradient                   ...        0 min,  0.022 sec
 * total energy  :   -82.4036610 Eh     change       -0.1451597E-03 Eh
   gradient norm :     0.0048088 Eh/α   predicted    -0.1221580E-03 ( -15.85%)
   displ. norm   :     0.4158435 α      lambda       -0.1841412E-03
   maximum displ.:     0.3261481 α      in ANC's #1, #2, #5, ...

........................................................................
.............................. CYCLE   39 ..............................
........................................................................
   1    -83.4821529 -0.834822E+02  0.642E-02    2.29       0.0  T
   2    -83.4821573 -0.442458E-05  0.375E-02    2.29       1.0  T
   3    -83.4821553  0.208171E-05  0.890E-03    2.28       1.5  T
   4    -83.4821583 -0.308904E-05  0.232E-03    2.29       5.9  T
   5    -83.4821585 -0.149911E-06  0.131E-03    2.29      10.5  T
   6    -83.4821585 -0.158719E-07  0.498E-04    2.29      27.6  T
   7    -83.4821585 -0.482466E-08  0.178E-04    2.29      77.4  T
     SCC iter.                  ...        0 min,  0.414 sec
     gradient                   ...        0 min,  0.008 sec
 * total energy  :   -82.4037828 Eh     change       -0.1218121E-03 Eh
   gradient norm :     0.0048532 Eh/α   predicted    -0.1079974E-03 ( -11.34%)
   displ. norm   :     0.5409884 α      lambda       -0.1399174E-03
   maximum displ.:     0.4164601 α      in ANC's #1, #2, #5, ...

........................................................................
.............................. CYCLE   40 ..............................
........................................................................
   1    -83.4798394 -0.834798E+02  0.854E-02    2.28       0.0  T
   2    -83.4798424 -0.300023E-05  0.499E-02    2.28       1.0  T
   3    -83.4798405  0.184730E-05  0.725E-03    2.27       1.9  T
   4    -83.4798434 -0.284233E-05  0.268E-03    2.28       5.1  T
   5    -83.4798435 -0.146175E-06  0.145E-03    2.28       9.5  T
   6    -83.4798435 -0.138913E-07  0.445E-04    2.28      30.9  T
   7    -83.4798435 -0.327528E-08  0.193E-04    2.28      71.0  T
     SCC iter.                  ...        0 min,  0.510 sec
     gradient                   ...        0 min,  0.007 sec
 * total energy  :   -82.4038774 Eh     change       -0.9459289E-04 Eh
   gradient norm :     0.0060206 Eh/α   predicted    -0.9043550E-04 (  -4.40%)
   displ. norm   :     0.2945762 α      lambda       -0.1166608E-03
   maximum displ.:     0.2436338 α      in ANC's #1, #2, #5, ...

........................................................................
.............................. CYCLE   41 ..............................
........................................................................
   1    -83.4804465 -0.834804E+02  0.409E-02    2.27       0.0  T
   2    -83.4804473 -0.779872E-06  0.240E-02    2.27       1.0  T
   3    -83.4804471  0.244380E-06  0.322E-03    2.27       4.3  T
   4    -83.4804475 -0.459709E-06  0.135E-03    2.27      10.1  T
   5    -83.4804476 -0.394634E-07  0.719E-04    2.27      19.1  T
   6    -83.4804476 -0.380265E-08  0.198E-04    2.27      69.5  T
     SCC iter.                  ...        0 min,  0.349 sec
     gradient                   ...        0 min,  0.019 sec
 * total energy  :   -82.4039701 Eh     change       -0.9264445E-04 Eh
   gradient norm :     0.0048950 Eh/α   predicted    -0.6339352E-04 ( -31.57%)
   displ. norm   :     0.5204409 α      lambda       -0.1837310E-03
   maximum displ.:     0.4358386 α      in ANC's #1, #2, #5, ...

........................................................................
.............................. CYCLE   42 ..............................
........................................................................
   1    -83.4816695 -0.834817E+02  0.692E-02    2.28       0.0  T
   2    -83.4816710 -0.151178E-05  0.408E-02    2.27       1.0  T
   3    -83.4816702  0.815180E-06  0.578E-03    2.27       2.4  T
   4    -83.4816716 -0.145603E-05  0.209E-03    2.27       6.6  T
   5    -83.4816717 -0.392090E-07  0.106E-03    2.27      12.9  T
   6    -83.4816717 -0.125630E-07  0.335E-04    2.27      41.0  T
   7    -83.4816717 -0.202029E-08  0.149E-04    2.27      92.3  T
     SCC iter.                  ...        0 min,  0.400 sec
     gradient                   ...        0 min,  0.021 sec
 * total energy  :   -82.4041048 Eh     change       -0.1347551E-03 Eh
   gradient norm :     0.0047274 Eh/α   predicted    -0.1167490E-03 ( -13.36%)
   displ. norm   :     0.4903639 α      lambda       -0.1572180E-03
   maximum displ.:     0.4183593 α      in ANC's #1, #2, #5, ...
 * RMSD in coord.:     1.1295490 α      energy gain  -0.3379125E-02 Eh

generating ANC from model Hessian ...
Using Lindh-Hessian (1995)
 Shifting diagonal of input Hessian by    9.9427280332552697E-003
 Lowest  eigenvalues of input Hessian
    0.000000    0.000000    0.000000    0.000000    0.000000    0.000000
    0.010000    0.010279    0.010366    0.010603    0.011085    0.011266
    0.012125    0.012296    0.013455    0.014331    0.015295    0.015905
 Highest eigenvalues
    1.998362    2.021682    2.106169    2.150608    2.286029    2.399616


........................................................................
.............................. CYCLE   43 ..............................
........................................................................
   1    -83.4820375 -0.834820E+02  0.619E-02    2.27       0.0  T
   2    -83.4820388 -0.124283E-05  0.364E-02    2.28       1.0  T
   3    -83.4820386  0.170368E-06  0.403E-03    2.28       3.4  T
   4    -83.4820392 -0.599792E-06  0.175E-03    2.28       7.8  T
   5    -83.4820392 -0.333934E-07  0.961E-04    2.28      14.3  T
   6    -83.4820392 -0.108472E-07  0.262E-04    2.28      52.3  T
     SCC iter.                  ...        0 min,  0.368 sec
     gradient                   ...        0 min,  0.008 sec
 * total energy  :   -82.4042260 Eh     change       -0.1211547E-03 Eh
   gradient norm :     0.0047704 Eh/α   predicted     0.0000000E+00 (-100.00%)
   displ. norm   :     0.0449493 α      lambda       -0.5915158E-04
   maximum displ.:     0.0261355 α      in ANC's #1, #3, #18, ...

........................................................................
.............................. CYCLE   44 ..............................
........................................................................
   1    -83.4822706 -0.834823E+02  0.152E-02    2.27       0.0  T
   2    -83.4822707 -0.188873E-06  0.890E-03    2.27       1.5  T
   3    -83.4822707  0.829840E-07  0.172E-03    2.27       8.0  T
   4    -83.4822708 -0.127388E-06  0.459E-04    2.28      30.0  T
   5    -83.4822708 -0.318879E-08  0.241E-04    2.27      57.0  T
     SCC iter.                  ...        0 min,  0.303 sec
     gradient                   ...        0 min,  0.026 sec
 * total energy  :   -82.4042744 Eh     change       -0.4845991E-04 Eh
   gradient norm :     0.0021924 Eh/α   predicted    -0.3142184E-04 ( -35.16%)
   displ. norm   :     0.0955203 α      lambda       -0.6572099E-04
   maximum displ.:     0.0592569 α      in ANC's #1, #3, #17, ...

........................................................................
.............................. CYCLE   45 ..............................
........................................................................
   1    -83.4825768 -0.834826E+02  0.251E-02    2.27       0.0  T
   2    -83.4825772 -0.333904E-06  0.148E-02    2.27       1.0  T
   3    -83.4825771  0.489939E-07  0.191E-03    2.28       7.2  T
   4    -83.4825772 -0.134359E-06  0.710E-04    2.28      19.3  T
   5    -83.4825772 -0.612637E-08  0.348E-04    2.28      39.5  T
     SCC iter.                  ...        0 min,  0.351 sec
     gradient                   ...        0 min,  0.019 sec
 * total energy  :   -82.4043183 Eh     change       -0.4389143E-04 Eh
   gradient norm :     0.0017717 Eh/α   predicted    -0.3316076E-04 ( -24.45%)
   displ. norm   :     0.1293261 α      lambda       -0.3120158E-04
   maximum displ.:     0.0849337 α      in ANC's #1, #3, #7, ...

........................................................................
.............................. CYCLE   46 ..............................
........................................................................
   1    -83.4826294 -0.834826E+02  0.263E-02    2.28       0.0  T
   2    -83.4826297 -0.239580E-06  0.155E-02    2.28       1.0  T
   3    -83.4826297 -0.354992E-07  0.131E-03    2.28      10.5  T
   4    -83.4826298 -0.387141E-07  0.649E-04    2.28      21.2  T
   5    -83.4826298 -0.287278E-08  0.320E-04    2.28      42.9  T
     SCC iter.                  ...        0 min,  0.328 sec
     gradient                   ...        0 min,  0.007 sec
 * total energy  :   -82.4043542 Eh     change       -0.3584523E-04 Eh
   gradient norm :     0.0030009 Eh/α   predicted    -0.1571686E-04 ( -56.15%)
   displ. norm   :     0.1044377 α      lambda       -0.3919170E-04
   maximum displ.:     0.0684054 α      in ANC's #1, #3, #2, ...

........................................................................
.............................. CYCLE   47 ..............................
........................................................................
   1    -83.4825903 -0.834826E+02  0.187E-02    2.28       0.0  T
   2    -83.4825904 -0.113706E-06  0.111E-02    2.28       1.2  T
   3    -83.4825904  0.462952E-07  0.140E-03    2.28       9.8  T
   4    -83.4825904 -0.837640E-07  0.526E-04    2.28      26.1  T
   5    -83.4825904 -0.460966E-08  0.290E-04    2.28      47.4  T
     SCC iter.                  ...        0 min,  0.380 sec
     gradient                   ...        0 min,  0.011 sec
 * total energy  :   -82.4043897 Eh     change       -0.3553605E-04 Eh
   gradient norm :     0.0024433 Eh/α   predicted    -0.1981025E-04 ( -44.25%)
   displ. norm   :     0.2133782 α      lambda       -0.7427228E-04
   maximum displ.:     0.1375393 α      in ANC's #1, #3, #2, ...

........................................................................
.............................. CYCLE   48 ..............................
........................................................................
   1    -83.4823835 -0.834824E+02  0.371E-02    2.28       0.0  T
   2    -83.4823839 -0.411205E-06  0.221E-02    2.28       1.0  T
   3    -83.4823837  0.163128E-06  0.269E-03    2.28       5.1  T
   4    -83.4823840 -0.307096E-06  0.106E-03    2.28      13.0  T
   5    -83.4823840 -0.169388E-07  0.559E-04    2.28      24.6  T
   6    -83.4823840 -0.389890E-08  0.129E-04    2.28     106.5  T
     SCC iter.                  ...        0 min,  0.432 sec
     gradient                   ...        0 min,  0.011 sec
 * total energy  :   -82.4044513 Eh     change       -0.6157887E-04 Eh
   gradient norm :     0.0016375 Eh/α   predicted    -0.3883497E-04 ( -36.93%)
   displ. norm   :     0.3854037 α      lambda       -0.6764499E-04
   maximum displ.:     0.2508316 α      in ANC's #1, #3, #2, ...

........................................................................
.............................. CYCLE   49 ..............................
........................................................................
   1    -83.4818452 -0.834818E+02  0.655E-02    2.28       0.0  T
   2    -83.4818463 -0.103468E-05  0.390E-02    2.28       1.0  T
   3    -83.4818463  0.585274E-09  0.355E-03    2.28       3.9  T
   4    -83.4818467 -0.402763E-06  0.181E-03    2.28       7.6  T
   5    -83.4818467 -0.404993E-07  0.821E-04    2.28      16.7  T
   6    -83.4818467 -0.121207E-07  0.201E-04    2.28      68.4  T
     SCC iter.                  ...        0 min,  0.464 sec
     gradient                   ...        0 min,  0.008 sec
 * total energy  :   -82.4045231 Eh     change       -0.7182792E-04 Eh
   gradient norm :     0.0027416 Eh/α   predicted    -0.3605674E-04 ( -49.80%)
   displ. norm   :     0.1429324 α      lambda       -0.3498499E-04
   maximum displ.:     0.0974104 α      in ANC's #1, #3, #2, ...

........................................................................
.............................. CYCLE   50 ..............................
........................................................................
   1    -83.4822776 -0.834823E+02  0.222E-02    2.28       0.0  T
   2    -83.4822778 -0.146762E-06  0.131E-02    2.28       1.0  T
   3    -83.4822778 -0.122288E-07  0.121E-03    2.28      11.3  T
   4    -83.4822778 -0.433453E-07  0.638E-04    2.28      21.5  T
   5    -83.4822779 -0.404086E-08  0.278E-04    2.28      49.4  T
     SCC iter.                  ...        0 min,  0.296 sec
     gradient                   ...        0 min,  0.009 sec
 * total energy  :   -82.4045551 Eh     change       -0.3194315E-04 Eh
   gradient norm :     0.0023522 Eh/α   predicted    -0.1785723E-04 ( -44.10%)
   displ. norm   :     0.1814110 α      lambda       -0.5502287E-04
   maximum displ.:     0.1254468 α      in ANC's #1, #3, #2, ...

........................................................................
.............................. CYCLE   51 ..............................
........................................................................
   1    -83.4830401 -0.834830E+02  0.285E-02    2.27       0.0  T
   2    -83.4830405 -0.427678E-06  0.168E-02    2.28       1.0  T
   3    -83.4830403  0.208429E-06  0.260E-03    2.27       5.3  T
   4    -83.4830406 -0.335276E-06  0.969E-04    2.28      14.2  T
   5    -83.4830406 -0.183355E-07  0.520E-04    2.27      26.4  T
     SCC iter.                  ...        0 min,  0.311 sec
